 Entering Gaussian System, Link 0=g09
 Initial command:
 /home/user/gaussian/g09/l1.exe "/home/user/Documents/Gau-5524.inp" -scrdir="/home/user/Documents/"
 Entering Link 1 = /home/user/gaussian/g09/l1.exe PID=      5535.
  
 Copyright (c) 1988,1990,1992,1993,1995,1998,2003,2009,2013,
            Gaussian, Inc.  All Rights Reserved.
  
 This is part of the Gaussian(R) 09 program.  It is based on
 the Gaussian(R) 03 system (copyright 2003, Gaussian, Inc.),
 the Gaussian(R) 98 system (copyright 1998, Gaussian, Inc.),
 the Gaussian(R) 94 system (copyright 1995, Gaussian, Inc.),
 the Gaussian 92(TM) system (copyright 1992, Gaussian, Inc.),
 the Gaussian 90(TM) system (copyright 1990, Gaussian, Inc.),
 the Gaussian 88(TM) system (copyright 1988, Gaussian, Inc.),
 the Gaussian 86(TM) system (copyright 1986, Carnegie Mellon
 University), and the Gaussian 82(TM) system (copyright 1983,
 Carnegie Mellon University). Gaussian is a federally registered
 trademark of Gaussian, Inc.
  
 This software contains proprietary and confidential information,
 including trade secrets, belonging to Gaussian, Inc.
  
 This software is provided under written license and may be
 used, copied, transmitted, or stored only in accord with that
 written license.
  
 The following legend is applicable only to US Government
 contracts under FAR:
  
                    RESTRICTED RIGHTS LEGEND
  
 Use, reproduction and disclosure by the US Government is
 subject to restrictions as set forth in subparagraphs (a)
 and (c) of the Commercial Computer Software - Restricted
 Rights clause in FAR 52.227-19.
  
 Gaussian, Inc.
 340 Quinnipiac St., Bldg. 40, Wallingford CT 06492
  
  
 ---------------------------------------------------------------
 Warning -- This program may not be used in any manner that
 competes with the business of Gaussian, Inc. or will provide
 assistance to any competitor of Gaussian, Inc.  The licensee
 of this program is prohibited from giving any competitor of
 Gaussian, Inc. access to this program.  By using this program,
 the user acknowledges that Gaussian, Inc. is engaged in the
 business of creating and licensing software in the field of
 computational chemistry and represents and warrants to the
 licensee that it is not a competitor of Gaussian, Inc. and that
 it will not use this program in any manner prohibited above.
 ---------------------------------------------------------------
  

 Cite this work as:
 Gaussian 09, Revision D.01,
 M. J. Frisch, G. W. Trucks, H. B. Schlegel, G. E. Scuseria, 
 M. A. Robb, J. R. Cheeseman, G. Scalmani, V. Barone, B. Mennucci, 
 G. A. Petersson, H. Nakatsuji, M. Caricato, X. Li, H. P. Hratchian, 
 A. F. Izmaylov, J. Bloino, G. Zheng, J. L. Sonnenberg, M. Hada, 
 M. Ehara, K. Toyota, R. Fukuda, J. Hasegawa, M. Ishida, T. Nakajima, 
 Y. Honda, O. Kitao, H. Nakai, T. Vreven, J. A. Montgomery, Jr., 
 J. E. Peralta, F. Ogliaro, M. Bearpark, J. J. Heyd, E. Brothers, 
 K. N. Kudin, V. N. Staroverov, T. Keith, R. Kobayashi, J. Normand, 
 K. Raghavachari, A. Rendell, J. C. Burant, S. S. Iyengar, J. Tomasi, 
 M. Cossi, N. Rega, J. M. Millam, M. Klene, J. E. Knox, J. B. Cross, 
 V. Bakken, C. Adamo, J. Jaramillo, R. Gomperts, R. E. Stratmann, 
 O. Yazyev, A. J. Austin, R. Cammi, C. Pomelli, J. W. Ochterski, 
 R. L. Martin, K. Morokuma, V. G. Zakrzewski, G. A. Voth, 
 P. Salvador, J. J. Dannenberg, S. Dapprich, A. D. Daniels, 
 O. Farkas, J. B. Foresman, J. V. Ortiz, J. Cioslowski, 
 and D. J. Fox, Gaussian, Inc., Wallingford CT, 2013.
 
 ******************************************
 Gaussian 09:  EM64L-G09RevD.01 24-Apr-2013
                21-Mar-2016 
 ******************************************
 %mem=950MW
 %nproc=8
 Will use up to    8 processors via shared memory.
 ------------------------------------------
 # pw91pw91/6-311++G(3df,3pd)/auto opt freq
 ------------------------------------------
 1/14=-1,18=20,19=15,26=3,38=1/1,3;
 2/9=110,12=2,17=6,18=5,40=1/2;
 3/5=4,6=6,7=1616,11=2,16=1,25=1,30=1,71=1,74=608,82=28/1,2,3;
 4//1;
 5/5=2,38=5/2;
 6/7=2,8=2,9=2,10=2,28=1/1;
 7//1,2,3,16;
 1/14=-1,18=20,19=15,26=3/3(2);
 2/9=110/2;
 99//99;
 2/9=110/2;
 3/5=4,6=6,7=1616,11=2,16=1,25=1,30=1,71=1,74=608,82=28/1,2,3;
 4/5=5,16=3,69=1/1;
 5/5=2,38=5/2;
 7//1,2,3,16;
 1/14=-1,18=20,19=15,26=3/3(-5);
 2/9=110/2;
 6/7=2,8=2,9=2,10=2,19=2,28=1/1;
 99/9=1/99;
 -------------------
 Title Card Required
 -------------------
 Symbolic Z-matrix:
 Charge =  0 Multiplicity = 1
 16                    4.4695   -0.89612  -0.59384 
 8                     3.84687  -1.74121  -1.62313 
 8                     6.02034  -1.36118  -0.66734 
 8                     4.45806   0.54414  -0.9003 
 8                     4.00298  -1.19606   0.77185 
 1                     1.73405   1.33631  -2.40601 
 1                     6.52482  -0.80816  -0.04291 
 16                    0.94481   3.70506   1.16395 
 8                     1.15105   3.73082  -0.2979 
 8                     1.23541   5.21247   1.68988 
 8                    -0.44322   3.50678   1.57678 
 8                     1.92471   2.83893   1.85153 
 1                     2.16899   5.41572   1.49964 
 16                   -0.38152  -0.37982  -2.15091 
 8                    -1.63839   0.258    -2.83521 
 8                    -0.31722   0.10882  -0.74849 
 8                    -0.58412  -1.86387  -2.18594 
 8                     0.77509   0.01469  -2.955 
 1                     1.8258    1.16612   1.65773 
 16                   -0.65226  -2.46546   2.3497 
 8                    -0.52603  -3.38017   3.68153 
 8                    -1.98686  -2.73719   1.79165 
 8                    -0.50716  -1.06207   2.79938 
 8                     0.47248  -2.94346   1.54631 
 1                    -1.24567  -3.12651   4.28836 
 1                     1.74121  -4.11187  -1.28436 
 1                    -1.48953   0.82447   0.49246 
 16                   -4.59064   0.4934   -0.61564 
 8                    -4.81105  -0.8763   -1.11938 
 8                    -4.56302   0.63      0.83616 
 8                    -3.43926   1.15762  -1.27713 
 8                    -5.90229   1.33855  -1.03571 
 1                    -6.0102    1.26804  -2.00204 
 1                    -2.03428  -2.44057  -1.40059 
 7                    -1.85474   1.13084   1.41494 
 1                    -1.43556   2.07054   1.60476 
 1                    -1.54361   0.42783   2.10792 
 1                    -2.89479   1.1421    1.35402 
 7                     1.67255   0.14869   1.4263 
 1                     1.10861   0.09651   0.55854 
 1                     1.10906  -0.3196    2.15904 
 1                     2.58473  -0.34648   1.27404 
 7                    -2.8515   -2.73022  -0.80612 
 1                    -3.18893  -3.64896  -1.09541 
 1                    -3.63192  -2.01896  -0.9109 
 1                    -2.53042  -2.76661   0.19603 
 7                     1.6103   -3.13538  -1.01684 
 1                     0.8325   -2.70632  -1.57968 
 1                     2.51409  -2.60097  -1.19355 
 1                     1.3215   -3.08637  -0.01698 
 7                     2.42021   2.03576  -2.02405 
 1                     2.77113   2.61305  -2.7896 
 1                     3.21839   1.50182  -1.59756 
 1                     1.95337   2.65882  -1.30738 
 1                    -2.36632   0.56475  -2.17375 
 
 Add virtual bond connecting atoms H55        and O31        Dist= 2.87D+00.
 Add virtual bond connecting atoms H49        and O2         Dist= 3.11D+00.
 Add virtual bond connecting atoms H34        and O17        Dist= 3.30D+00.
 Add virtual bond connecting atoms H45        and O29        Dist= 3.13D+00.
 Add virtual bond connecting atoms H54        and O9         Dist= 3.17D+00.
 Add virtual bond connecting atoms H46        and O22        Dist= 3.19D+00.
 Add virtual bond connecting atoms H19        and O12        Dist= 3.19D+00.
 Add virtual bond connecting atoms H42        and O5         Dist= 3.27D+00.
 Add virtual bond connecting atoms H53        and O4         Dist= 3.24D+00.
 Add virtual bond connecting atoms O17        and H48        Dist= 3.32D+00.
 Add virtual bond connecting atoms O18        and H6         Dist= 3.26D+00.
 Add virtual bond connecting atoms O24        and H50        Dist= 3.37D+00.
 Add virtual bond connecting atoms H27        and O16        Dist= 3.50D+00.
 Add virtual bond connecting atoms H36        and O11        Dist= 3.30D+00.
 Add virtual bond connecting atoms H38        and O30        Dist= 3.44D+00.

 GradGradGradGradGradGradGradGradGradGradGradGradGradGradGradGradGradGrad
 Berny optimization.
 Initialization pass.
                           ----------------------------
                           !    Initial Parameters    !
                           ! (Angstroms and Degrees)  !
 --------------------------                            --------------------------
 ! Name  Definition              Value          Derivative Info.                !
 --------------------------------------------------------------------------------
 ! R1    R(1,2)                  1.4701         estimate D2E/DX2                !
 ! R2    R(1,3)                  1.6207         estimate D2E/DX2                !
 ! R3    R(1,4)                  1.4725         estimate D2E/DX2                !
 ! R4    R(1,5)                  1.474          estimate D2E/DX2                !
 ! R5    R(2,49)                 1.6432         estimate D2E/DX2                !
 ! R6    R(3,7)                  0.9748         estimate D2E/DX2                !
 ! R7    R(4,53)                 1.7147         estimate D2E/DX2                !
 ! R8    R(5,42)                 1.7278         estimate D2E/DX2                !
 ! R9    R(6,18)                 1.7227         estimate D2E/DX2                !
 ! R10   R(6,51)                 1.0516         estimate D2E/DX2                !
 ! R11   R(8,9)                  1.4766         estimate D2E/DX2                !
 ! R12   R(8,10)                 1.6228         estimate D2E/DX2                !
 ! R13   R(8,11)                 1.4616         estimate D2E/DX2                !
 ! R14   R(8,12)                 1.4775         estimate D2E/DX2                !
 ! R15   R(9,54)                 1.6769         estimate D2E/DX2                !
 ! R16   R(10,13)                0.9742         estimate D2E/DX2                !
 ! R17   R(11,36)                1.7459         estimate D2E/DX2                !
 ! R18   R(12,19)                1.6869         estimate D2E/DX2                !
 ! R19   R(14,15)                1.5668         estimate D2E/DX2                !
 ! R20   R(14,16)                1.4865         estimate D2E/DX2                !
 ! R21   R(14,17)                1.4982         estimate D2E/DX2                !
 ! R22   R(14,18)                1.4629         estimate D2E/DX2                !
 ! R23   R(15,55)                1.0303         estimate D2E/DX2                !
 ! R24   R(16,27)                1.8511         estimate D2E/DX2                !
 ! R25   R(17,34)                1.7471         estimate D2E/DX2                !
 ! R26   R(17,48)                1.7562         estimate D2E/DX2                !
 ! R27   R(19,39)                1.0546         estimate D2E/DX2                !
 ! R28   R(20,21)                1.6206         estimate D2E/DX2                !
 ! R29   R(20,22)                1.4719         estimate D2E/DX2                !
 ! R30   R(20,23)                1.4808         estimate D2E/DX2                !
 ! R31   R(20,24)                1.4625         estimate D2E/DX2                !
 ! R32   R(21,25)                0.9749         estimate D2E/DX2                !
 ! R33   R(22,46)                1.6859         estimate D2E/DX2                !
 ! R34   R(24,50)                1.7847         estimate D2E/DX2                !
 ! R35   R(26,47)                1.0209         estimate D2E/DX2                !
 ! R36   R(27,35)                1.0384         estimate D2E/DX2                !
 ! R37   R(28,29)                1.4759         estimate D2E/DX2                !
 ! R38   R(28,30)                1.4585         estimate D2E/DX2                !
 ! R39   R(28,31)                1.4847         estimate D2E/DX2                !
 ! R40   R(28,32)                1.6159         estimate D2E/DX2                !
 ! R41   R(29,45)                1.6551         estimate D2E/DX2                !
 ! R42   R(30,38)                1.8203         estimate D2E/DX2                !
 ! R43   R(31,55)                1.5188         estimate D2E/DX2                !
 ! R44   R(32,33)                0.9749         estimate D2E/DX2                !
 ! R45   R(34,43)                1.0513         estimate D2E/DX2                !
 ! R46   R(35,36)                1.0463         estimate D2E/DX2                !
 ! R47   R(35,37)                1.035          estimate D2E/DX2                !
 ! R48   R(35,38)                1.0419         estimate D2E/DX2                !
 ! R49   R(39,40)                1.0362         estimate D2E/DX2                !
 ! R50   R(39,41)                1.0362         estimate D2E/DX2                !
 ! R51   R(39,42)                1.049          estimate D2E/DX2                !
 ! R52   R(43,44)                1.0206         estimate D2E/DX2                !
 ! R53   R(43,45)                1.0611         estimate D2E/DX2                !
 ! R54   R(43,46)                1.053          estimate D2E/DX2                !
 ! R55   R(47,48)                1.0516         estimate D2E/DX2                !
 ! R56   R(47,49)                1.0647         estimate D2E/DX2                !
 ! R57   R(47,50)                1.0419         estimate D2E/DX2                !
 ! R58   R(51,52)                1.021          estimate D2E/DX2                !
 ! R59   R(51,53)                1.0507         estimate D2E/DX2                !
 ! R60   R(51,54)                1.0582         estimate D2E/DX2                !
 ! A1    A(2,1,3)              102.0378         estimate D2E/DX2                !
 ! A2    A(2,1,4)              114.4081         estimate D2E/DX2                !
 ! A3    A(2,1,5)              113.4325         estimate D2E/DX2                !
 ! A4    A(3,1,4)              106.1795         estimate D2E/DX2                !
 ! A5    A(3,1,5)              106.6474         estimate D2E/DX2                !
 ! A6    A(4,1,5)              112.9164         estimate D2E/DX2                !
 ! A7    A(1,2,49)             117.4679         estimate D2E/DX2                !
 ! A8    A(1,3,7)              107.6595         estimate D2E/DX2                !
 ! A9    A(1,4,53)             129.5331         estimate D2E/DX2                !
 ! A10   A(1,5,42)             115.4056         estimate D2E/DX2                !
 ! A11   A(9,8,10)             106.2394         estimate D2E/DX2                !
 ! A12   A(9,8,11)             114.4969         estimate D2E/DX2                !
 ! A13   A(9,8,12)             112.2291         estimate D2E/DX2                !
 ! A14   A(10,8,11)            101.802          estimate D2E/DX2                !
 ! A15   A(10,8,12)            105.9587         estimate D2E/DX2                !
 ! A16   A(11,8,12)            114.7617         estimate D2E/DX2                !
 ! A17   A(8,9,54)             130.6683         estimate D2E/DX2                !
 ! A18   A(8,10,13)            107.5851         estimate D2E/DX2                !
 ! A19   A(8,11,36)            130.9855         estimate D2E/DX2                !
 ! A20   A(8,12,19)            119.2714         estimate D2E/DX2                !
 ! A21   A(15,14,16)           108.2362         estimate D2E/DX2                !
 ! A22   A(15,14,17)           106.5316         estimate D2E/DX2                !
 ! A23   A(15,14,18)           106.5234         estimate D2E/DX2                !
 ! A24   A(16,14,17)           110.702          estimate D2E/DX2                !
 ! A25   A(16,14,18)           113.3116         estimate D2E/DX2                !
 ! A26   A(17,14,18)           111.1741         estimate D2E/DX2                !
 ! A27   A(14,15,55)           114.0527         estimate D2E/DX2                !
 ! A28   A(14,16,27)           137.0689         estimate D2E/DX2                !
 ! A29   A(14,17,34)           115.3856         estimate D2E/DX2                !
 ! A30   A(14,17,48)           110.9788         estimate D2E/DX2                !
 ! A31   A(34,17,48)           110.8567         estimate D2E/DX2                !
 ! A32   A(6,18,14)            118.1549         estimate D2E/DX2                !
 ! A33   A(21,20,22)           106.1412         estimate D2E/DX2                !
 ! A34   A(21,20,23)           106.1245         estimate D2E/DX2                !
 ! A35   A(21,20,24)           101.9504         estimate D2E/DX2                !
 ! A36   A(22,20,23)           112.2681         estimate D2E/DX2                !
 ! A37   A(22,20,24)           115.3854         estimate D2E/DX2                !
 ! A38   A(23,20,24)           113.654          estimate D2E/DX2                !
 ! A39   A(20,21,25)           107.8889         estimate D2E/DX2                !
 ! A40   A(20,22,46)           130.8741         estimate D2E/DX2                !
 ! A41   A(20,24,50)           150.8324         estimate D2E/DX2                !
 ! A42   A(16,27,35)           158.8116         estimate D2E/DX2                !
 ! A43   A(29,28,30)           115.4351         estimate D2E/DX2                !
 ! A44   A(29,28,31)           112.2665         estimate D2E/DX2                !
 ! A45   A(29,28,32)           105.9872         estimate D2E/DX2                !
 ! A46   A(30,28,31)           112.762          estimate D2E/DX2                !
 ! A47   A(30,28,32)           103.0118         estimate D2E/DX2                !
 ! A48   A(31,28,32)           106.24           estimate D2E/DX2                !
 ! A49   A(28,29,45)           119.4255         estimate D2E/DX2                !
 ! A50   A(28,30,38)           109.0805         estimate D2E/DX2                !
 ! A51   A(28,31,55)           129.5111         estimate D2E/DX2                !
 ! A52   A(28,32,33)           108.0414         estimate D2E/DX2                !
 ! A53   A(27,35,36)           106.5737         estimate D2E/DX2                !
 ! A54   A(27,35,37)           106.7791         estimate D2E/DX2                !
 ! A55   A(27,35,38)           107.5983         estimate D2E/DX2                !
 ! A56   A(36,35,37)           111.6            estimate D2E/DX2                !
 ! A57   A(36,35,38)           113.6288         estimate D2E/DX2                !
 ! A58   A(37,35,38)           110.2771         estimate D2E/DX2                !
 ! A59   A(11,36,35)           164.491          estimate D2E/DX2                !
 ! A60   A(30,38,35)           158.1927         estimate D2E/DX2                !
 ! A61   A(19,39,40)           108.1458         estimate D2E/DX2                !
 ! A62   A(19,39,41)           111.0899         estimate D2E/DX2                !
 ! A63   A(19,39,42)           111.1541         estimate D2E/DX2                !
 ! A64   A(40,39,41)           105.8704         estimate D2E/DX2                !
 ! A65   A(40,39,42)           109.1425         estimate D2E/DX2                !
 ! A66   A(41,39,42)           111.2344         estimate D2E/DX2                !
 ! A67   A(34,43,44)           110.1671         estimate D2E/DX2                !
 ! A68   A(34,43,45)           109.3427         estimate D2E/DX2                !
 ! A69   A(34,43,46)           108.0999         estimate D2E/DX2                !
 ! A70   A(44,43,45)           109.4055         estimate D2E/DX2                !
 ! A71   A(44,43,46)           109.8449         estimate D2E/DX2                !
 ! A72   A(45,43,46)           109.9633         estimate D2E/DX2                !
 ! A73   A(26,47,48)           110.1722         estimate D2E/DX2                !
 ! A74   A(26,47,49)           109.132          estimate D2E/DX2                !
 ! A75   A(26,47,50)           109.3907         estimate D2E/DX2                !
 ! A76   A(48,47,49)           109.5251         estimate D2E/DX2                !
 ! A77   A(48,47,50)           106.8234         estimate D2E/DX2                !
 ! A78   A(49,47,50)           111.775          estimate D2E/DX2                !
 ! A79   A(6,51,52)            109.1462         estimate D2E/DX2                !
 ! A80   A(6,51,53)            107.7633         estimate D2E/DX2                !
 ! A81   A(6,51,54)            110.4717         estimate D2E/DX2                !
 ! A82   A(52,51,53)           109.3034         estimate D2E/DX2                !
 ! A83   A(52,51,54)           109.058          estimate D2E/DX2                !
 ! A84   A(53,51,54)           111.0647         estimate D2E/DX2                !
 ! A85   L(18,6,51,1,-1)       171.6328         estimate D2E/DX2                !
 ! A86   L(12,19,39,4,-1)      179.6451         estimate D2E/DX2                !
 ! A87   L(17,34,43,11,-1)     173.5092         estimate D2E/DX2                !
 ! A88   L(5,42,39,6,-1)       172.3392         estimate D2E/DX2                !
 ! A89   L(29,45,43,6,-1)      177.9055         estimate D2E/DX2                !
 ! A90   L(22,46,43,1,-1)      178.2055         estimate D2E/DX2                !
 ! A91   L(17,48,47,4,-1)      178.5242         estimate D2E/DX2                !
 ! A92   L(2,49,47,8,-1)       180.2661         estimate D2E/DX2                !
 ! A93   L(24,50,47,5,-1)      189.1207         estimate D2E/DX2                !
 ! A94   L(4,53,51,12,-1)      180.2543         estimate D2E/DX2                !
 ! A95   L(9,54,51,14,-1)      180.0443         estimate D2E/DX2                !
 ! A96   L(15,55,31,8,-1)      178.7845         estimate D2E/DX2                !
 ! A97   L(18,6,51,1,-2)       179.0045         estimate D2E/DX2                !
 ! A98   L(12,19,39,4,-2)      188.106          estimate D2E/DX2                !
 ! A99   L(17,34,43,11,-2)     184.7117         estimate D2E/DX2                !
 ! A100  L(5,42,39,6,-2)       175.449          estimate D2E/DX2                !
 ! A101  L(29,45,43,6,-2)      181.0831         estimate D2E/DX2                !
 ! A102  L(22,46,43,1,-2)      182.6514         estimate D2E/DX2                !
 ! A103  L(17,48,47,4,-2)      167.0482         estimate D2E/DX2                !
 ! A104  L(2,49,47,8,-2)       173.8638         estimate D2E/DX2                !
 ! A105  L(24,50,47,5,-2)      188.5877         estimate D2E/DX2                !
 ! A106  L(4,53,51,12,-2)      183.57           estimate D2E/DX2                !
 ! A107  L(9,54,51,14,-2)      174.0279         estimate D2E/DX2                !
 ! A108  L(15,55,31,8,-2)      173.9827         estimate D2E/DX2                !
 ! D1    D(3,1,2,49)           128.6221         estimate D2E/DX2                !
 ! D2    D(4,1,2,49)          -117.1954         estimate D2E/DX2                !
 ! D3    D(5,1,2,49)            14.3121         estimate D2E/DX2                !
 ! D4    D(2,1,3,7)            176.8477         estimate D2E/DX2                !
 ! D5    D(4,1,3,7)             56.7272         estimate D2E/DX2                !
 ! D6    D(5,1,3,7)            -63.9325         estimate D2E/DX2                !
 ! D7    D(2,1,4,53)            40.648          estimate D2E/DX2                !
 ! D8    D(3,1,4,53)           152.3718         estimate D2E/DX2                !
 ! D9    D(5,1,4,53)           -91.108          estimate D2E/DX2                !
 ! D10   D(2,1,5,42)           -87.78           estimate D2E/DX2                !
 ! D11   D(3,1,5,42)           160.699          estimate D2E/DX2                !
 ! D12   D(4,1,5,42)            44.4567         estimate D2E/DX2                !
 ! D13   D(1,2,47,26)         -128.9943         estimate D2E/DX2                !
 ! D14   D(1,2,47,48)          112.1661         estimate D2E/DX2                !
 ! D15   D(1,2,47,50)           -5.7465         estimate D2E/DX2                !
 ! D16   D(1,4,51,6)           -13.3017         estimate D2E/DX2                !
 ! D17   D(1,4,51,52)         -131.4328         estimate D2E/DX2                !
 ! D18   D(1,4,51,54)          106.7855         estimate D2E/DX2                !
 ! D19   D(1,5,39,19)          -76.8241         estimate D2E/DX2                !
 ! D20   D(1,5,39,40)           40.2123         estimate D2E/DX2                !
 ! D21   D(1,5,39,41)          154.7515         estimate D2E/DX2                !
 ! D22   D(8,9,51,6)            92.1946         estimate D2E/DX2                !
 ! D23   D(8,9,51,52)         -149.796          estimate D2E/DX2                !
 ! D24   D(8,9,51,53)          -29.0485         estimate D2E/DX2                !
 ! D25   D(8,12,39,40)          19.3974         estimate D2E/DX2                !
 ! D26   D(8,12,39,41)         -94.3592         estimate D2E/DX2                !
 ! D27   D(8,12,39,42)         137.689          estimate D2E/DX2                !
 ! D28   D(14,15,31,28)        -85.8003         estimate D2E/DX2                !
 ! D29   D(14,17,43,44)        158.7048         estimate D2E/DX2                !
 ! D30   D(14,17,43,45)         35.4269         estimate D2E/DX2                !
 ! D31   D(14,17,43,46)        -81.984          estimate D2E/DX2                !
 ! D32   D(48,17,43,44)        -76.2712         estimate D2E/DX2                !
 ! D33   D(48,17,43,45)        160.451          estimate D2E/DX2                !
 ! D34   D(48,17,43,46)         43.04           estimate D2E/DX2                !
 ! D35   D(14,17,47,26)       -158.5814         estimate D2E/DX2                !
 ! D36   D(14,17,47,49)        -33.3334         estimate D2E/DX2                !
 ! D37   D(14,17,47,50)         84.6943         estimate D2E/DX2                !
 ! D38   D(34,17,47,26)         74.7879         estimate D2E/DX2                !
 ! D39   D(34,17,47,49)       -159.964          estimate D2E/DX2                !
 ! D40   D(34,17,47,50)        -41.9364         estimate D2E/DX2                !
 ! D41   D(14,18,51,52)       -144.0595         estimate D2E/DX2                !
 ! D42   D(14,18,51,53)         99.1387         estimate D2E/DX2                !
 ! D43   D(14,18,51,54)        -20.6405         estimate D2E/DX2                !
 ! D44   D(10,8,9,54)          135.6813         estimate D2E/DX2                !
 ! D45   D(11,8,9,54)         -112.7988         estimate D2E/DX2                !
 ! D46   D(12,8,9,54)           20.3152         estimate D2E/DX2                !
 ! D47   D(9,8,10,13)          -63.0133         estimate D2E/DX2                !
 ! D48   D(11,8,10,13)         176.8502         estimate D2E/DX2                !
 ! D49   D(12,8,10,13)          56.5325         estimate D2E/DX2                !
 ! D50   D(9,8,11,36)           76.3299         estimate D2E/DX2                !
 ! D51   D(10,8,11,36)        -169.518          estimate D2E/DX2                !
 ! D52   D(12,8,11,36)         -55.5831         estimate D2E/DX2                !
 ! D53   D(9,8,12,19)          -70.2226         estimate D2E/DX2                !
 ! D54   D(10,8,12,19)         174.2411         estimate D2E/DX2                !
 ! D55   D(11,8,12,19)          62.7615         estimate D2E/DX2                !
 ! D56   D(8,11,36,35)         -26.303          estimate D2E/DX2                !
 ! D57   D(16,14,15,55)        -22.6268         estimate D2E/DX2                !
 ! D58   D(17,14,15,55)         96.4542         estimate D2E/DX2                !
 ! D59   D(18,14,15,55)       -144.7911         estimate D2E/DX2                !
 ! D60   D(15,14,16,27)         21.5332         estimate D2E/DX2                !
 ! D61   D(17,14,16,27)        -94.8764         estimate D2E/DX2                !
 ! D62   D(18,14,16,27)        139.4404         estimate D2E/DX2                !
 ! D63   D(15,14,17,34)        -58.1417         estimate D2E/DX2                !
 ! D64   D(15,14,17,48)        174.7004         estimate D2E/DX2                !
 ! D65   D(16,14,17,34)         59.3182         estimate D2E/DX2                !
 ! D66   D(16,14,17,48)        -67.8396         estimate D2E/DX2                !
 ! D67   D(18,14,17,34)       -173.8075         estimate D2E/DX2                !
 ! D68   D(18,14,17,48)         59.0346         estimate D2E/DX2                !
 ! D69   D(15,14,18,6)          99.4812         estimate D2E/DX2                !
 ! D70   D(16,14,18,6)         -19.4174         estimate D2E/DX2                !
 ! D71   D(17,14,18,6)        -144.8479         estimate D2E/DX2                !
 ! D72   D(14,16,27,35)        164.5118         estimate D2E/DX2                !
 ! D73   D(22,20,21,25)        -59.0099         estimate D2E/DX2                !
 ! D74   D(23,20,21,25)         60.6148         estimate D2E/DX2                !
 ! D75   D(24,20,21,25)        179.8294         estimate D2E/DX2                !
 ! D76   D(21,20,22,46)       -147.2852         estimate D2E/DX2                !
 ! D77   D(23,20,22,46)         97.1881         estimate D2E/DX2                !
 ! D78   D(24,20,22,46)        -35.2031         estimate D2E/DX2                !
 ! D79   D(21,20,24,50)        163.3426         estimate D2E/DX2                !
 ! D80   D(22,20,24,50)         48.8253         estimate D2E/DX2                !
 ! D81   D(23,20,24,50)        -82.9152         estimate D2E/DX2                !
 ! D82   D(20,22,43,34)         -2.5786         estimate D2E/DX2                !
 ! D83   D(20,22,43,44)        118.0873         estimate D2E/DX2                !
 ! D84   D(20,22,43,45)       -120.7624         estimate D2E/DX2                !
 ! D85   D(20,24,47,26)       -120.0684         estimate D2E/DX2                !
 ! D86   D(20,24,47,48)         -4.2192         estimate D2E/DX2                !
 ! D87   D(20,24,47,49)        113.5609         estimate D2E/DX2                !
 ! D88   D(16,27,35,36)         81.5612         estimate D2E/DX2                !
 ! D89   D(16,27,35,37)        -37.8384         estimate D2E/DX2                !
 ! D90   D(16,27,35,38)       -156.2226         estimate D2E/DX2                !
 ! D91   D(30,28,29,45)        -68.7395         estimate D2E/DX2                !
 ! D92   D(31,28,29,45)         62.3836         estimate D2E/DX2                !
 ! D93   D(32,28,29,45)        177.9567         estimate D2E/DX2                !
 ! D94   D(29,28,30,38)        114.5534         estimate D2E/DX2                !
 ! D95   D(31,28,30,38)        -16.3335         estimate D2E/DX2                !
 ! D96   D(32,28,30,38)       -130.4274         estimate D2E/DX2                !
 ! D97   D(29,28,31,55)        -11.6221         estimate D2E/DX2                !
 ! D98   D(30,28,31,55)        120.8388         estimate D2E/DX2                !
 ! D99   D(32,28,31,55)       -127.0421         estimate D2E/DX2                !
 ! D100  D(29,28,32,33)        -56.2933         estimate D2E/DX2                !
 ! D101  D(30,28,32,33)       -177.9445         estimate D2E/DX2                !
 ! D102  D(31,28,32,33)         63.3103         estimate D2E/DX2                !
 ! D103  D(28,29,43,34)        -66.7335         estimate D2E/DX2                !
 ! D104  D(28,29,43,44)        173.007          estimate D2E/DX2                !
 ! D105  D(28,29,43,46)         51.376          estimate D2E/DX2                !
 ! D106  D(28,30,38,35)        -49.6267         estimate D2E/DX2                !
 ! D107  D(27,35,36,11)        -16.0456         estimate D2E/DX2                !
 ! D108  D(37,35,36,11)        100.1718         estimate D2E/DX2                !
 ! D109  D(38,35,36,11)       -134.3735         estimate D2E/DX2                !
 ! D110  D(27,35,38,30)         33.8384         estimate D2E/DX2                !
 ! D111  D(36,35,38,30)        151.5748         estimate D2E/DX2                !
 ! D112  D(37,35,38,30)        -82.2687         estimate D2E/DX2                !
 --------------------------------------------------------------------------------
 Trust Radius=3.00D-01 FncErr=1.00D-07 GrdErr=1.00D-06
 Number of steps in this run=    290 maximum allowed number of steps=    330.
 GradGradGradGradGradGradGradGradGradGradGradGradGradGradGradGradGradGrad

 Stoichiometry    H25N5O20S5
 Framework group  C1[X(H25N5O20S5)]
 Deg. of freedom   159
 Full point group                 C1      NOp   1
 Largest Abelian subgroup         C1      NOp   1
 Largest concise Abelian subgroup C1      NOp   1
                         Standard orientation:                         
 ---------------------------------------------------------------------
 Center     Atomic      Atomic             Coordinates (Angstroms)
 Number     Number       Type             X           Y           Z
 ---------------------------------------------------------------------
      1         16           0        4.469501   -0.896115   -0.593837
      2          8           0        3.846865   -1.741207   -1.623134
      3          8           0        6.020343   -1.361176   -0.667342
      4          8           0        4.458061    0.544136   -0.900298
      5          8           0        4.002977   -1.196055    0.771852
      6          1           0        1.734053    1.336310   -2.406007
      7          1           0        6.524816   -0.808163   -0.042914
      8         16           0        0.944811    3.705059    1.163952
      9          8           0        1.151055    3.730819   -0.297898
     10          8           0        1.235405    5.212469    1.689883
     11          8           0       -0.443218    3.506783    1.576780
     12          8           0        1.924713    2.838934    1.851531
     13          1           0        2.168989    5.415723    1.499640
     14         16           0       -0.381521   -0.379818   -2.150912
     15          8           0       -1.638389    0.257995   -2.835208
     16          8           0       -0.317223    0.108817   -0.748488
     17          8           0       -0.584124   -1.863865   -2.185935
     18          8           0        0.775087    0.014692   -2.954998
     19          1           0        1.825804    1.166122    1.657730
     20         16           0       -0.652255   -2.465460    2.349701
     21          8           0       -0.526027   -3.380171    3.681531
     22          8           0       -1.986859   -2.737188    1.791649
     23          8           0       -0.507164   -1.062073    2.799377
     24          8           0        0.472475   -2.943461    1.546307
     25          1           0       -1.245674   -3.126508    4.288361
     26          1           0        1.741210   -4.111873   -1.284362
     27          1           0       -1.489525    0.824469    0.492455
     28         16           0       -4.590638    0.493395   -0.615639
     29          8           0       -4.811053   -0.876296   -1.119382
     30          8           0       -4.563024    0.629996    0.836155
     31          8           0       -3.439260    1.157620   -1.277126
     32          8           0       -5.902288    1.338545   -1.035710
     33          1           0       -6.010201    1.268043   -2.002040
     34          1           0       -2.034276   -2.440565   -1.400594
     35          7           0       -1.854739    1.130837    1.414939
     36          1           0       -1.435560    2.070541    1.604763
     37          1           0       -1.543614    0.427825    2.107918
     38          1           0       -2.894793    1.142102    1.354020
     39          7           0        1.672552    0.148690    1.426298
     40          1           0        1.108607    0.096509    0.558538
     41          1           0        1.109056   -0.319596    2.159042
     42          1           0        2.584732   -0.346478    1.274038
     43          7           0       -2.851500   -2.730219   -0.806119
     44          1           0       -3.188933   -3.648962   -1.095407
     45          1           0       -3.631920   -2.018957   -0.910896
     46          1           0       -2.530418   -2.766610    0.196032
     47          7           0        1.610301   -3.135377   -1.016837
     48          1           0        0.832500   -2.706322   -1.579681
     49          1           0        2.514091   -2.600969   -1.193550
     50          1           0        1.321496   -3.086374   -0.016984
     51          7           0        2.420214    2.035758   -2.024054
     52          1           0        2.771125    2.613047   -2.789602
     53          1           0        3.218394    1.501824   -1.597562
     54          1           0        1.953372    2.658817   -1.307376
     55          1           0       -2.366316    0.564745   -2.173749
 ---------------------------------------------------------------------
 Rotational constants (GHZ):      0.1127938      0.0762260      0.0651668
 Standard basis: 6-311++G(3df,3pd) (5D, 7F)
 There are  1865 symmetry adapted cartesian basis functions of A   symmetry.
 There are  1660 symmetry adapted basis functions of A   symmetry.
  1660 basis functions,  2335 primitive gaussians,  1865 cartesian basis functions
   150 alpha electrons      150 beta electrons
       nuclear repulsion energy      5296.0534363909 Hartrees.
 NAtoms=   55 NActive=   55 NUniq=   55 SFac= 1.00D+00 NAtFMM=   60 NAOKFM=F Big=F
 Integral buffers will be    131072 words long.
 Raffenetti 2 integral format.
 Two-electron integral symmetry is turned on.
 Standard density basis: Auto (5D, 7F)
  7340 Density fitting functions
 There are  7340 symmetry adapted density basis functions of A   symmetry.
 One-electron integrals computed using PRISM.
 NBasis=  1660 RedAO= T EigKep=  5.50D-06  NBF=  1660
 NBsUse=  1660 1.00D-06 EigRej= -1.00D+00 NBFU=  1660
 NBasis=     1660 NBas6D=     1865 NTT=     1378630   NTT6D=  1740045
 NDBShl=     1030 NDBF=       7340 NDBF6D=     9570  NNucDB=        0
 IDenFi=        2 ISolve=        0 FullAP=F BlkAPC=T NucTyp=        0
 TolInv= 1.00D-06 TolIt=  1.00D-10 IR12=0.
 FoFCou: FMM=F IPFlag=           0 FMFlag=           0 FMFlg1=           0
         NFxFlg=           0 DoJE=F BraDBF=T KetDBF=T FulRan=T
         wScrn=  0.000000 ICntrl=     600 IOpCl=  3 I1Cent=           6 NGrid=           0
         NMat0=    1 NMatS0=   9570 NMatT0=    0 NMatD0=    1 NMtDS0=    0 NMtDT0=    0
 Petite list used in FoFCou.
 DBF EigKep=  1.02D-06 EigRej=  1.00D-06
 NDBF=   7340  NBFD=  7340
 NRank=  6850 NBFDU=  6850
 S*AI*S=  16.9721587024    
 ExpMin= 3.60D-02 ExpMax= 9.34D+04 ExpMxC= 3.17D+03 IAcc=3 IRadAn=         5 AccDes= 0.00D+00
 Harris functional with IExCor=  608 and IRadAn=       5 diagonalized for initial guess.
 HarFok:  IExCor=  608 AccDes= 0.00D+00 IRadAn=         5 IDoV= 1 UseB2=F ITyADJ=14
 ICtDFT=  3500011 ScaDFX=  1.000000  1.000000  1.000000  1.000000
 FoFCou: FMM=F IPFlag=           0 FMFlag=      100000 FMFlg1=           0
         NFxFlg=           0 DoJE=T BraDBF=F KetDBF=T FulRan=T
         wScrn=  0.000000 ICntrl=     500 IOpCl=  0 I1Cent=   200000004 NGrid=           0
         NMat0=    1 NMatS0=      1 NMatT0=    0 NMatD0=    1 NMtDS0=    0 NMtDT0=    0
 Petite list used in FoFCou.
 Requested convergence on RMS density matrix=1.00D-08 within 128 cycles.
 Requested convergence on MAX density matrix=1.00D-06.
 Requested convergence on             energy=1.00D-06.
 No special actions if energy rises.
 FoFCou: FMM=F IPFlag=           0 FMFlag=      100000 FMFlg1=           0
         NFxFlg=           0 DoJE=T BraDBF=T KetDBF=F FulRan=T
         wScrn=  0.000000 ICntrl=     500 IOpCl=  0 I1Cent=           5 NGrid=           0
         NMat0=    1 NMatS0=      1 NMatT0=    0 NMatD0=    1 NMtDS0=    0 NMtDT0=    0
 Symmetry not used in FoFCou.
 Initial convergence to 1.0D-05 achieved.  Increase integral accuracy.
 SCF Done:  E(RPW91-PW91) =  -3784.82312683     A.U. after   16 cycles
            NFock= 16  Conv=0.26D-08     -V/T= 2.0021

 **********************************************************************

            Population analysis using the SCF density.

 **********************************************************************

 Orbital symmetries:
       Occupied  (A) (A) (A) (A) (A) (A) (A) (A) (A) (A) (A) (A)
                 (A) (A) (A) (A) (A) (A) (A) (A) (A) (A) (A) (A)
                 (A) (A) (A) (A) (A) (A) (A) (A) (A) (A) (A) (A)
                 (A) (A) (A) (A) (A) (A) (A) (A) (A) (A) (A) (A)
                 (A) (A) (A) (A) (A) (A) (A) (A) (A) (A) (A) (A)
                 (A) (A) (A) (A) (A) (A) (A) (A) (A) (A) (A) (A)
                 (A) (A) (A) (A) (A) (A) (A) (A) (A) (A) (A) (A)
                 (A) (A) (A) (A) (A) (A) (A) (A) (A) (A) (A) (A)
                 (A) (A) (A) (A) (A) (A) (A) (A) (A) (A) (A) (A)
                 (A) (A) (A) (A) (A) (A) (A) (A) (A) (A) (A) (A)
                 (A) (A) (A) (A) (A) (A) (A) (A) (A) (A) (A) (A)
                 (A) (A) (A) (A) (A) (A) (A) (A) (A) (A) (A) (A)
                 (A) (A) (A) (A) (A) (A)
       Virtual   (A) (A) (A) (A) (A) (A) (A) (A) (A) (A) (A) (A)
                 (A) (A) (A) (A) (A) (A) (A) (A) (A) (A) (A) (A)
                 (A) (A) (A) (A) (A) (A) (A) (A) (A) (A) (A) (A)
                 (A) (A) (A) (A) (A) (A) (A) (A) (A) (A) (A) (A)
                 (A) (A) (A) (A) (A) (A) (A) (A) (A) (A) (A) (A)
                 (A) (A) (A) (A) (A) (A) (A) (A) (A) (A) (A) (A)
                 (A) (A) (A) (A) (A) (A) (A) (A) (A) (A) (A) (A)
                 (A) (A) (A) (A) (A) (A) (A) (A) (A) (A) (A) (A)
                 (A) (A) (A) (A) (A) (A) (A) (A) (A) (A) (A) (A)
                 (A) (A) (A) (A) (A) (A) (A) (A) (A) (A) (A) (A)
                 (A) (A) (A) (A) (A) (A) (A) (A) (A) (A) (A) (A)
                 (A) (A) (A) (A) (A) (A) (A) (A) (A) (A) (A) (A)
                 (A) (A) (A) (A) (A) (A) (A) (A) (A) (A) (A) (A)
                 (A) (A) (A) (A) (A) (A) (A) (A) (A) (A) (A) (A)
                 (A) (A) (A) (A) (A) (A) (A) (A) (A) (A) (A) (A)
                 (A) (A) (A) (A) (A) (A) (A) (A) (A) (A) (A) (A)
                 (A) (A) (A) (A) (A) (A) (A) (A) (A) (A) (A) (A)
                 (A) (A) (A) (A) (A) (A) (A) (A) (A) (A) (A) (A)
                 (A) (A) (A) (A) (A) (A) (A) (A) (A) (A) (A) (A)
                 (A) (A) (A) (A) (A) (A) (A) (A) (A) (A) (A) (A)
                 (A) (A) (A) (A) (A) (A) (A) (A) (A) (A) (A) (A)
                 (A) (A) (A) (A) (A) (A) (A) (A) (A) (A) (A) (A)
                 (A) (A) (A) (A) (A) (A) (A) (A) (A) (A) (A) (A)
                 (A) (A) (A) (A) (A) (A) (A) (A) (A) (A) (A) (A)
                 (A) (A) (A) (A) (A) (A) (A) (A) (A) (A) (A) (A)
                 (A) (A) (A) (A) (A) (A) (A) (A) (A) (A) (A) (A)
                 (A) (A) (A) (A) (A) (A) (A) (A) (A) (A) (A) (A)
                 (A) (A) (A) (A) (A) (A) (A) (A) (A) (A) (A) (A)
                 (A) (A) (A) (A) (A) (A) (A) (A) (A) (A) (A) (A)
                 (A) (A) (A) (A) (A) (A) (A) (A) (A) (A) (A) (A)
                 (A) (A) (A) (A) (A) (A) (A) (A) (A) (A) (A) (A)
                 (A) (A) (A) (A) (A) (A) (A) (A) (A) (A) (A) (A)
                 (A) (A) (A) (A) (A) (A) (A) (A) (A) (A) (A) (A)
                 (A) (A) (A) (A) (A) (A) (A) (A) (A) (A) (A) (A)
                 (A) (A) (A) (A) (A) (A) (A) (A) (A) (A) (A) (A)
                 (A) (A) (A) (A) (A) (A) (A) (A) (A) (A) (A) (A)
                 (A) (A) (A) (A) (A) (A) (A) (A) (A) (A) (A) (A)
                 (A) (A) (A) (A) (A) (A) (A) (A) (A) (A) (A) (A)
                 (A) (A) (A) (A) (A) (A) (A) (A) (A) (A) (A) (A)
                 (A) (A) (A) (A) (A) (A) (A) (A) (A) (A) (A) (A)
                 (A) (A) (A) (A) (A) (A) (A) (A) (A) (A) (A) (A)
                 (A) (A) (A) (A) (A) (A) (A) (A) (A) (A) (A) (A)
                 (A) (A) (A) (A) (A) (A) (A) (A) (A) (A) (A) (A)
                 (A) (A) (A) (A) (A) (A) (A) (A) (A) (A) (A) (A)
                 (A) (A) (A) (A) (A) (A) (A) (A) (A) (A) (A) (A)
                 (A) (A) (A) (A) (A) (A) (A) (A) (A) (A) (A) (A)
                 (A) (A) (A) (A) (A) (A) (A) (A) (A) (A) (A) (A)
                 (A) (A) (A) (A) (A) (A) (A) (A) (A) (A) (A) (A)
                 (A) (A) (A) (A) (A) (A) (A) (A) (A) (A) (A) (A)
                 (A) (A) (A) (A) (A) (A) (A) (A) (A) (A) (A) (A)
                 (A) (A) (A) (A) (A) (A) (A) (A) (A) (A) (A) (A)
                 (A) (A) (A) (A) (A) (A) (A) (A) (A) (A) (A) (A)
                 (A) (A) (A) (A) (A) (A) (A) (A) (A) (A) (A) (A)
                 (A) (A) (A) (A) (A) (A) (A) (A) (A) (A) (A) (A)
                 (A) (A) (A) (A) (A) (A) (A) (A) (A) (A) (A) (A)
                 (A) (A) (A) (A) (A) (A) (A) (A) (A) (A) (A) (A)
                 (A) (A) (A) (A) (A) (A) (A) (A) (A) (A) (A) (A)
                 (A) (A) (A) (A) (A) (A) (A) (A) (A) (A) (A) (A)
                 (A) (A) (A) (A) (A) (A) (A) (A) (A) (A) (A) (A)
                 (A) (A) (A) (A) (A) (A) (A) (A) (A) (A) (A) (A)
                 (A) (A) (A) (A) (A) (A) (A) (A) (A) (A) (A) (A)
                 (A) (A) (A) (A) (A) (A) (A) (A) (A) (A) (A) (A)
                 (A) (A) (A) (A) (A) (A) (A) (A) (A) (A) (A) (A)
                 (A) (A) (A) (A) (A) (A) (A) (A) (A) (A) (A) (A)
                 (A) (A) (A) (A) (A) (A) (A) (A) (A) (A) (A) (A)
                 (A) (A) (A) (A) (A) (A) (A) (A) (A) (A) (A) (A)
                 (A) (A) (A) (A) (A) (A) (A) (A) (A) (A) (A) (A)
                 (A) (A) (A) (A) (A) (A) (A) (A) (A) (A) (A) (A)
                 (A) (A) (A) (A) (A) (A) (A) (A) (A) (A) (A) (A)
                 (A) (A) (A) (A) (A) (A) (A) (A) (A) (A) (A) (A)
                 (A) (A) (A) (A) (A) (A) (A) (A) (A) (A) (A) (A)
                 (A) (A) (A) (A) (A) (A) (A) (A) (A) (A) (A) (A)
                 (A) (A) (A) (A) (A) (A) (A) (A) (A) (A) (A) (A)
                 (A) (A) (A) (A) (A) (A) (A) (A) (A) (A) (A) (A)
                 (A) (A) (A) (A) (A) (A) (A) (A) (A) (A) (A) (A)
                 (A) (A) (A) (A) (A) (A) (A) (A) (A) (A) (A) (A)
                 (A) (A) (A) (A) (A) (A) (A) (A) (A) (A) (A) (A)
                 (A) (A) (A) (A) (A) (A) (A) (A) (A) (A) (A) (A)
                 (A) (A) (A) (A) (A) (A) (A) (A) (A) (A) (A) (A)
                 (A) (A) (A) (A) (A) (A) (A) (A) (A) (A) (A) (A)
                 (A) (A) (A) (A) (A) (A) (A) (A) (A) (A) (A) (A)
                 (A) (A) (A) (A) (A) (A) (A) (A) (A) (A) (A) (A)
                 (A) (A) (A) (A) (A) (A) (A) (A) (A) (A) (A) (A)
                 (A) (A) (A) (A) (A) (A) (A) (A) (A) (A) (A) (A)
                 (A) (A) (A) (A) (A) (A) (A) (A) (A) (A) (A) (A)
                 (A) (A) (A) (A) (A) (A) (A) (A) (A) (A) (A) (A)
                 (A) (A) (A) (A) (A) (A) (A) (A) (A) (A) (A) (A)
                 (A) (A) (A) (A) (A) (A) (A) (A) (A) (A) (A) (A)
                 (A) (A) (A) (A) (A) (A) (A) (A) (A) (A) (A) (A)
                 (A) (A) (A) (A) (A) (A) (A) (A) (A) (A) (A) (A)
                 (A) (A) (A) (A) (A) (A) (A) (A) (A) (A) (A) (A)
                 (A) (A) (A) (A) (A) (A) (A) (A) (A) (A) (A) (A)
                 (A) (A) (A) (A) (A) (A) (A) (A) (A) (A) (A) (A)
                 (A) (A) (A) (A) (A) (A) (A) (A) (A) (A) (A) (A)
                 (A) (A) (A) (A) (A) (A) (A) (A) (A) (A) (A) (A)
                 (A) (A) (A) (A) (A) (A) (A) (A) (A) (A) (A) (A)
                 (A) (A) (A) (A) (A) (A) (A) (A) (A) (A) (A) (A)
                 (A) (A) (A) (A) (A) (A) (A) (A) (A) (A) (A) (A)
                 (A) (A) (A) (A) (A) (A) (A) (A) (A) (A) (A) (A)
                 (A) (A) (A) (A) (A) (A) (A) (A) (A) (A) (A) (A)
                 (A) (A) (A) (A) (A) (A) (A) (A) (A) (A) (A) (A)
                 (A) (A) (A) (A) (A) (A) (A) (A) (A) (A) (A) (A)
                 (A) (A) (A) (A) (A) (A) (A) (A) (A) (A) (A) (A)
                 (A) (A) (A) (A) (A) (A) (A) (A) (A) (A) (A) (A)
                 (A) (A) (A) (A) (A) (A) (A) (A) (A) (A) (A) (A)
                 (A) (A) (A) (A) (A) (A) (A) (A) (A) (A) (A) (A)
                 (A) (A) (A) (A) (A) (A) (A) (A) (A) (A) (A) (A)
                 (A) (A) (A) (A) (A) (A) (A) (A) (A) (A) (A) (A)
                 (A) (A) (A) (A) (A) (A) (A) (A) (A) (A) (A) (A)
                 (A) (A) (A) (A) (A) (A) (A) (A) (A) (A) (A) (A)
                 (A) (A) (A) (A) (A) (A) (A) (A) (A) (A) (A) (A)
                 (A) (A) (A) (A) (A) (A) (A) (A) (A) (A) (A) (A)
                 (A) (A) (A) (A) (A) (A) (A) (A) (A) (A) (A) (A)
                 (A) (A) (A) (A) (A) (A) (A) (A) (A) (A) (A) (A)
                 (A) (A) (A) (A) (A) (A) (A) (A) (A) (A) (A) (A)
                 (A) (A) (A) (A) (A) (A) (A) (A) (A) (A) (A) (A)
                 (A) (A) (A) (A) (A) (A) (A) (A) (A) (A) (A) (A)
                 (A) (A) (A) (A) (A) (A) (A) (A) (A) (A) (A) (A)
                 (A) (A) (A) (A) (A) (A) (A) (A) (A) (A) (A) (A)
                 (A) (A) (A) (A) (A) (A) (A) (A) (A) (A) (A) (A)
                 (A) (A) (A) (A) (A) (A) (A) (A) (A) (A) (A) (A)
                 (A) (A) (A) (A) (A) (A) (A) (A) (A) (A) (A) (A)
                 (A) (A) (A) (A) (A) (A) (A) (A) (A) (A) (A) (A)
                 (A) (A) (A) (A) (A) (A) (A) (A) (A) (A) (A) (A)
                 (A) (A) (A) (A) (A) (A) (A) (A) (A) (A) (A) (A)
                 (A) (A) (A) (A) (A) (A) (A) (A) (A) (A)
 The electronic state is 1-A.
 Alpha  occ. eigenvalues --  -88.29824 -88.29820 -88.28961 -88.28847 -88.27826
 Alpha  occ. eigenvalues --  -18.81867 -18.81301 -18.81256 -18.80182 -18.79873
 Alpha  occ. eigenvalues --  -18.77519 -18.77345 -18.77263 -18.77195 -18.77145
 Alpha  occ. eigenvalues --  -18.76671 -18.76658 -18.76531 -18.76481 -18.76305
 Alpha  occ. eigenvalues --  -18.76150 -18.76065 -18.75267 -18.75223 -18.75141
 Alpha  occ. eigenvalues --  -14.08846 -14.08317 -14.07497 -14.06789 -14.06569
 Alpha  occ. eigenvalues --   -7.86691  -7.86657  -7.85864  -7.85753  -7.84711
 Alpha  occ. eigenvalues --   -5.89357  -5.89280  -5.89138  -5.89126  -5.89109
 Alpha  occ. eigenvalues --   -5.89082  -5.88531  -5.88427  -5.88311  -5.88257
 Alpha  occ. eigenvalues --   -5.88179  -5.88161  -5.87389  -5.87137  -5.87119
 Alpha  occ. eigenvalues --   -1.08477  -1.08309  -1.07779  -1.07675  -1.06540
 Alpha  occ. eigenvalues --   -0.96437  -0.96006  -0.95823  -0.95280  -0.94690
 Alpha  occ. eigenvalues --   -0.93662  -0.93316  -0.93234  -0.93065  -0.92867
 Alpha  occ. eigenvalues --   -0.92810  -0.92338  -0.92307  -0.91733  -0.91251
 Alpha  occ. eigenvalues --   -0.89669  -0.89208  -0.88374  -0.87889  -0.87649
 Alpha  occ. eigenvalues --   -0.60850  -0.60369  -0.59697  -0.59091  -0.58617
 Alpha  occ. eigenvalues --   -0.52944  -0.52810  -0.52657  -0.52169  -0.52053
 Alpha  occ. eigenvalues --   -0.51825  -0.51749  -0.51356  -0.51230  -0.51138
 Alpha  occ. eigenvalues --   -0.50912  -0.50688  -0.50443  -0.50048  -0.49589
 Alpha  occ. eigenvalues --   -0.49096  -0.48847  -0.47938  -0.47327  -0.46878
 Alpha  occ. eigenvalues --   -0.45223  -0.44875  -0.44554  -0.44426  -0.44053
 Alpha  occ. eigenvalues --   -0.44017  -0.43862  -0.43135  -0.42949  -0.42144
 Alpha  occ. eigenvalues --   -0.40607  -0.39786  -0.39781  -0.38879  -0.38703
 Alpha  occ. eigenvalues --   -0.34860  -0.34736  -0.34296  -0.34189  -0.34010
 Alpha  occ. eigenvalues --   -0.33952  -0.33661  -0.33426  -0.33303  -0.33029
 Alpha  occ. eigenvalues --   -0.33018  -0.32887  -0.32718  -0.32572  -0.32456
 Alpha  occ. eigenvalues --   -0.32323  -0.32291  -0.31832  -0.31295  -0.31293
 Alpha  occ. eigenvalues --   -0.29108  -0.28529  -0.28274  -0.28144  -0.27318
 Alpha  occ. eigenvalues --   -0.27209  -0.27143  -0.26707  -0.26585  -0.26130
 Alpha  occ. eigenvalues --   -0.26092  -0.25520  -0.25174  -0.25001  -0.23822
 Alpha virt. eigenvalues --   -0.06149  -0.04474  -0.04031  -0.03732  -0.02954
 Alpha virt. eigenvalues --   -0.02760  -0.02229  -0.00749   0.00131   0.00401
 Alpha virt. eigenvalues --    0.00923   0.01325   0.01920   0.02449   0.02533
 Alpha virt. eigenvalues --    0.02744   0.02986   0.03266   0.03445   0.03504
 Alpha virt. eigenvalues --    0.03576   0.03938   0.04247   0.04352   0.04458
 Alpha virt. eigenvalues --    0.04561   0.04921   0.05015   0.05206   0.05431
 Alpha virt. eigenvalues --    0.05583   0.05718   0.05954   0.06194   0.06237
 Alpha virt. eigenvalues --    0.06507   0.06781   0.06986   0.07176   0.07257
 Alpha virt. eigenvalues --    0.07622   0.07779   0.08094   0.08149   0.08247
 Alpha virt. eigenvalues --    0.08372   0.08545   0.08639   0.08863   0.09052
 Alpha virt. eigenvalues --    0.09114   0.09328   0.09414   0.09655   0.09877
 Alpha virt. eigenvalues --    0.10052   0.10182   0.10450   0.10723   0.10902
 Alpha virt. eigenvalues --    0.10997   0.11135   0.11349   0.11531   0.11645
 Alpha virt. eigenvalues --    0.12014   0.12599   0.12715   0.12843   0.12980
 Alpha virt. eigenvalues --    0.13466   0.13695   0.13769   0.13899   0.14142
 Alpha virt. eigenvalues --    0.14437   0.14586   0.14789   0.15028   0.15363
 Alpha virt. eigenvalues --    0.15530   0.15806   0.15932   0.16139   0.16621
 Alpha virt. eigenvalues --    0.16830   0.16913   0.17235   0.17452   0.17650
 Alpha virt. eigenvalues --    0.18029   0.18129   0.18439   0.18518   0.18781
 Alpha virt. eigenvalues --    0.18881   0.19002   0.19151   0.19360   0.19450
 Alpha virt. eigenvalues --    0.19701   0.19870   0.19904   0.20411   0.20497
 Alpha virt. eigenvalues --    0.20921   0.21123   0.21293   0.21505   0.21663
 Alpha virt. eigenvalues --    0.21812   0.22094   0.22344   0.22513   0.23030
 Alpha virt. eigenvalues --    0.23180   0.23308   0.23414   0.24073   0.24221
 Alpha virt. eigenvalues --    0.24474   0.24892   0.25057   0.25286   0.25583
 Alpha virt. eigenvalues --    0.25851   0.26084   0.26304   0.26542   0.26815
 Alpha virt. eigenvalues --    0.27230   0.27354   0.27563   0.27669   0.27959
 Alpha virt. eigenvalues --    0.28164   0.28364   0.28505   0.28822   0.28890
 Alpha virt. eigenvalues --    0.29048   0.29443   0.29640   0.29854   0.30080
 Alpha virt. eigenvalues --    0.30117   0.30549   0.30597   0.30706   0.31011
 Alpha virt. eigenvalues --    0.31201   0.31323   0.31454   0.31559   0.31727
 Alpha virt. eigenvalues --    0.31884   0.32230   0.32309   0.32652   0.32700
 Alpha virt. eigenvalues --    0.32984   0.33213   0.33398   0.33934   0.34086
 Alpha virt. eigenvalues --    0.34326   0.34634   0.34885   0.35295   0.35490
 Alpha virt. eigenvalues --    0.35734   0.35825   0.35980   0.36489   0.36539
 Alpha virt. eigenvalues --    0.36867   0.37229   0.37386   0.37680   0.37954
 Alpha virt. eigenvalues --    0.38113   0.38177   0.38468   0.38886   0.39134
 Alpha virt. eigenvalues --    0.39512   0.39588   0.39637   0.39898   0.40096
 Alpha virt. eigenvalues --    0.40377   0.40644   0.40863   0.40998   0.41245
 Alpha virt. eigenvalues --    0.41768   0.41936   0.42136   0.42529   0.42620
 Alpha virt. eigenvalues --    0.43034   0.43277   0.43406   0.43870   0.43990
 Alpha virt. eigenvalues --    0.44105   0.44819   0.45043   0.45253   0.45505
 Alpha virt. eigenvalues --    0.45639   0.45920   0.46212   0.46301   0.46522
 Alpha virt. eigenvalues --    0.47178   0.47559   0.47685   0.47929   0.48061
 Alpha virt. eigenvalues --    0.48447   0.48570   0.48954   0.49231   0.49603
 Alpha virt. eigenvalues --    0.50100   0.50253   0.50653   0.50783   0.51507
 Alpha virt. eigenvalues --    0.51583   0.52071   0.52259   0.52840   0.53132
 Alpha virt. eigenvalues --    0.53419   0.53917   0.54181   0.54552   0.54737
 Alpha virt. eigenvalues --    0.55116   0.55516   0.56075   0.56232   0.56325
 Alpha virt. eigenvalues --    0.56923   0.57576   0.57631   0.58140   0.58456
 Alpha virt. eigenvalues --    0.58687   0.59304   0.59677   0.59980   0.60291
 Alpha virt. eigenvalues --    0.60388   0.60685   0.60916   0.61226   0.61502
 Alpha virt. eigenvalues --    0.61838   0.62048   0.62224   0.62622   0.62970
 Alpha virt. eigenvalues --    0.63182   0.63567   0.63919   0.64117   0.64414
 Alpha virt. eigenvalues --    0.64649   0.64926   0.65300   0.65651   0.66180
 Alpha virt. eigenvalues --    0.66335   0.66577   0.67109   0.67353   0.67537
 Alpha virt. eigenvalues --    0.67879   0.68074   0.68752   0.69170   0.69518
 Alpha virt. eigenvalues --    0.69842   0.69961   0.70753   0.71349   0.71706
 Alpha virt. eigenvalues --    0.71940   0.72250   0.72729   0.72945   0.73147
 Alpha virt. eigenvalues --    0.73567   0.73828   0.74012   0.74403   0.74998
 Alpha virt. eigenvalues --    0.75165   0.75568   0.75932   0.76201   0.76645
 Alpha virt. eigenvalues --    0.77198   0.77544   0.77807   0.78228   0.78308
 Alpha virt. eigenvalues --    0.79369   0.79491   0.79678   0.79934   0.80507
 Alpha virt. eigenvalues --    0.80922   0.81061   0.81686   0.81820   0.82114
 Alpha virt. eigenvalues --    0.82226   0.82561   0.83109   0.83511   0.84220
 Alpha virt. eigenvalues --    0.84823   0.85162   0.85509   0.85770   0.86136
 Alpha virt. eigenvalues --    0.86513   0.86876   0.86986   0.87550   0.87852
 Alpha virt. eigenvalues --    0.88278   0.88592   0.88846   0.88932   0.90013
 Alpha virt. eigenvalues --    0.90163   0.90386   0.90911   0.91222   0.91424
 Alpha virt. eigenvalues --    0.91729   0.91901   0.92464   0.92486   0.92938
 Alpha virt. eigenvalues --    0.93143   0.93589   0.93982   0.94138   0.94807
 Alpha virt. eigenvalues --    0.94842   0.95442   0.95959   0.96207   0.96404
 Alpha virt. eigenvalues --    0.96697   0.96935   0.97387   0.97698   0.97734
 Alpha virt. eigenvalues --    0.97956   0.98123   0.98379   0.98703   0.99016
 Alpha virt. eigenvalues --    0.99368   0.99726   0.99973   1.00140   1.00363
 Alpha virt. eigenvalues --    1.00547   1.00770   1.01081   1.01250   1.01468
 Alpha virt. eigenvalues --    1.01752   1.01818   1.02304   1.02541   1.02588
 Alpha virt. eigenvalues --    1.02899   1.03150   1.03630   1.03877   1.04060
 Alpha virt. eigenvalues --    1.04151   1.04422   1.04805   1.05071   1.05256
 Alpha virt. eigenvalues --    1.05547   1.05882   1.06315   1.06816   1.07043
 Alpha virt. eigenvalues --    1.07124   1.07350   1.07586   1.07975   1.08651
 Alpha virt. eigenvalues --    1.08913   1.08936   1.09404   1.09653   1.10000
 Alpha virt. eigenvalues --    1.10332   1.10441   1.10823   1.11136   1.11578
 Alpha virt. eigenvalues --    1.11898   1.12221   1.12427   1.12469   1.12875
 Alpha virt. eigenvalues --    1.13421   1.13675   1.14000   1.14277   1.14782
 Alpha virt. eigenvalues --    1.14913   1.15261   1.15695   1.15762   1.16132
 Alpha virt. eigenvalues --    1.16451   1.16822   1.17327   1.17412   1.17714
 Alpha virt. eigenvalues --    1.18137   1.18483   1.18935   1.18999   1.19267
 Alpha virt. eigenvalues --    1.19359   1.19939   1.20409   1.20607   1.20890
 Alpha virt. eigenvalues --    1.21179   1.21612   1.21820   1.22070   1.22347
 Alpha virt. eigenvalues --    1.22668   1.22815   1.23499   1.23754   1.23938
 Alpha virt. eigenvalues --    1.24433   1.24951   1.25543   1.25764   1.26002
 Alpha virt. eigenvalues --    1.26532   1.26634   1.27182   1.27306   1.27960
 Alpha virt. eigenvalues --    1.28224   1.28313   1.28782   1.29025   1.29384
 Alpha virt. eigenvalues --    1.29565   1.29962   1.30232   1.30276   1.31448
 Alpha virt. eigenvalues --    1.31689   1.31838   1.32462   1.32753   1.33795
 Alpha virt. eigenvalues --    1.33894   1.34222   1.34551   1.35277   1.35462
 Alpha virt. eigenvalues --    1.35680   1.36166   1.36428   1.36962   1.37309
 Alpha virt. eigenvalues --    1.37845   1.38067   1.38659   1.39283   1.39437
 Alpha virt. eigenvalues --    1.39801   1.40038   1.40650   1.41082   1.41730
 Alpha virt. eigenvalues --    1.41830   1.42377   1.42993   1.43545   1.44046
 Alpha virt. eigenvalues --    1.44632   1.45114   1.45492   1.45845   1.46581
 Alpha virt. eigenvalues --    1.46686   1.47107   1.47709   1.48165   1.48621
 Alpha virt. eigenvalues --    1.49005   1.49147   1.49795   1.50749   1.51040
 Alpha virt. eigenvalues --    1.52478   1.53192   1.53745   1.54318   1.55574
 Alpha virt. eigenvalues --    1.55848   1.57721   1.59863   1.60197   1.60727
 Alpha virt. eigenvalues --    1.61308   1.62106   1.64307   1.65613   1.66188
 Alpha virt. eigenvalues --    1.66655   1.67191   1.67292   1.68401   1.68653
 Alpha virt. eigenvalues --    1.68805   1.69678   1.70033   1.70596   1.71048
 Alpha virt. eigenvalues --    1.71970   1.72229   1.73359   1.74451   1.74820
 Alpha virt. eigenvalues --    1.75171   1.76438   1.76776   1.77263   1.77635
 Alpha virt. eigenvalues --    1.78679   1.79213   1.80007   1.80248   1.81533
 Alpha virt. eigenvalues --    1.82250   1.82941   1.83729   1.84775   1.84974
 Alpha virt. eigenvalues --    1.85949   1.86060   1.86822   1.87229   1.87612
 Alpha virt. eigenvalues --    1.88222   1.88614   1.88762   1.89516   1.89882
 Alpha virt. eigenvalues --    1.90026   1.90190   1.90403   1.91117   1.91412
 Alpha virt. eigenvalues --    1.91990   1.92901   1.93100   1.93657   1.94159
 Alpha virt. eigenvalues --    1.94629   1.94782   1.94978   1.96101   1.96231
 Alpha virt. eigenvalues --    1.96842   1.96944   1.97172   1.97441   1.97863
 Alpha virt. eigenvalues --    1.98414   1.98606   1.99106   1.99735   2.00043
 Alpha virt. eigenvalues --    2.00424   2.00923   2.01143   2.02294   2.02848
 Alpha virt. eigenvalues --    2.03133   2.03796   2.04055   2.04491   2.04913
 Alpha virt. eigenvalues --    2.05445   2.05941   2.06268   2.06537   2.07349
 Alpha virt. eigenvalues --    2.07714   2.07819   2.07941   2.08431   2.09115
 Alpha virt. eigenvalues --    2.09705   2.09970   2.10584   2.10829   2.11217
 Alpha virt. eigenvalues --    2.11507   2.12204   2.12553   2.12819   2.13074
 Alpha virt. eigenvalues --    2.13497   2.14205   2.14828   2.15389   2.15667
 Alpha virt. eigenvalues --    2.16138   2.16369   2.17045   2.17626   2.17772
 Alpha virt. eigenvalues --    2.18409   2.18672   2.19039   2.19523   2.20109
 Alpha virt. eigenvalues --    2.20275   2.20903   2.21434   2.21795   2.22103
 Alpha virt. eigenvalues --    2.23074   2.23478   2.23878   2.24861   2.24941
 Alpha virt. eigenvalues --    2.25372   2.25853   2.26056   2.26535   2.27425
 Alpha virt. eigenvalues --    2.27792   2.28010   2.29116   2.29474   2.30036
 Alpha virt. eigenvalues --    2.30576   2.30679   2.31173   2.31766   2.32244
 Alpha virt. eigenvalues --    2.32909   2.33840   2.33950   2.34595   2.35083
 Alpha virt. eigenvalues --    2.35205   2.35912   2.36171   2.36448   2.37654
 Alpha virt. eigenvalues --    2.38156   2.38683   2.38802   2.39520   2.40212
 Alpha virt. eigenvalues --    2.40648   2.41205   2.42062   2.42432   2.42785
 Alpha virt. eigenvalues --    2.44218   2.44869   2.45421   2.46292   2.47031
 Alpha virt. eigenvalues --    2.49218   2.50991   2.52589   2.53175   2.54067
 Alpha virt. eigenvalues --    2.54607   2.55485   2.56540   2.57284   2.58003
 Alpha virt. eigenvalues --    2.58457   2.59782   2.60747   2.61498   2.63491
 Alpha virt. eigenvalues --    2.64066   2.66414   2.66717   2.67615   2.68434
 Alpha virt. eigenvalues --    2.69424   2.70953   2.72134   2.72892   2.77123
 Alpha virt. eigenvalues --    2.83651   2.83967   2.84709   2.85128   2.94019
 Alpha virt. eigenvalues --    2.94153   2.94282   2.94945   2.95380   2.95705
 Alpha virt. eigenvalues --    2.96329   2.96565   2.97296   2.97715   2.97972
 Alpha virt. eigenvalues --    2.98571   2.99068   2.99559   2.99965   3.00093
 Alpha virt. eigenvalues --    3.00597   3.00823   3.01793   3.01939   3.02075
 Alpha virt. eigenvalues --    3.02651   3.02857   3.03348   3.03809   3.03990
 Alpha virt. eigenvalues --    3.04464   3.05102   3.05308   3.05543   3.06446
 Alpha virt. eigenvalues --    3.06599   3.08034   3.08277   3.08637   3.10176
 Alpha virt. eigenvalues --    3.11026   3.11288   3.11908   3.12189   3.12689
 Alpha virt. eigenvalues --    3.13346   3.15043   3.15216   3.15628   3.15983
 Alpha virt. eigenvalues --    3.16380   3.16437   3.17212   3.18194   3.19242
 Alpha virt. eigenvalues --    3.19806   3.20668   3.21000   3.21590   3.21922
 Alpha virt. eigenvalues --    3.22512   3.22791   3.22829   3.23620   3.24057
 Alpha virt. eigenvalues --    3.24414   3.24738   3.25556   3.26838   3.26988
 Alpha virt. eigenvalues --    3.27597   3.28648   3.29965   3.30139   3.30645
 Alpha virt. eigenvalues --    3.30831   3.32269   3.32973   3.33153   3.33745
 Alpha virt. eigenvalues --    3.34308   3.34352   3.35394   3.35728   3.36823
 Alpha virt. eigenvalues --    3.39510   3.39973   3.40551   3.40713   3.40933
 Alpha virt. eigenvalues --    3.41373   3.41957   3.42467   3.42760   3.42965
 Alpha virt. eigenvalues --    3.43280   3.43350   3.43922   3.44438   3.44764
 Alpha virt. eigenvalues --    3.44989   3.45191   3.45489   3.45935   3.46089
 Alpha virt. eigenvalues --    3.46302   3.46878   3.47230   3.47584   3.47735
 Alpha virt. eigenvalues --    3.48206   3.48410   3.48744   3.49016   3.49333
 Alpha virt. eigenvalues --    3.49690   3.49979   3.50188   3.50465   3.50555
 Alpha virt. eigenvalues --    3.50846   3.51486   3.51739   3.52422   3.52494
 Alpha virt. eigenvalues --    3.52907   3.53101   3.53640   3.53915   3.54172
 Alpha virt. eigenvalues --    3.54594   3.54908   3.55186   3.55836   3.56107
 Alpha virt. eigenvalues --    3.56613   3.56725   3.57435   3.57483   3.58633
 Alpha virt. eigenvalues --    3.58862   3.58970   3.59077   3.60068   3.60388
 Alpha virt. eigenvalues --    3.60632   3.61119   3.61765   3.61853   3.62500
 Alpha virt. eigenvalues --    3.62866   3.63093   3.63324   3.63819   3.64293
 Alpha virt. eigenvalues --    3.64449   3.65048   3.65562   3.65979   3.66394
 Alpha virt. eigenvalues --    3.66665   3.66983   3.67280   3.67499   3.68073
 Alpha virt. eigenvalues --    3.68187   3.68966   3.69365   3.69664   3.70272
 Alpha virt. eigenvalues --    3.70733   3.71254   3.71627   3.71997   3.72127
 Alpha virt. eigenvalues --    3.72649   3.72768   3.72929   3.73552   3.74030
 Alpha virt. eigenvalues --    3.74711   3.75736   3.75903   3.76215   3.76630
 Alpha virt. eigenvalues --    3.77526   3.78100   3.79179   3.80091   3.80971
 Alpha virt. eigenvalues --    3.81204   3.82242   3.82507   3.83481   3.84127
 Alpha virt. eigenvalues --    3.85498   3.86655   3.87467   3.87712   3.89307
 Alpha virt. eigenvalues --    3.89957   3.91069   3.93694   3.96292   3.96859
 Alpha virt. eigenvalues --    4.00287   4.00924   4.01383   4.02047   4.02545
 Alpha virt. eigenvalues --    4.02784   4.02938   4.03630   4.03939   4.04288
 Alpha virt. eigenvalues --    4.04674   4.05351   4.06196   4.06394   4.07597
 Alpha virt. eigenvalues --    4.08143   4.08421   4.08605   4.09491   4.10591
 Alpha virt. eigenvalues --    4.10933   4.11491   4.12470   4.13651   4.17733
 Alpha virt. eigenvalues --    4.28659   4.30478   4.31611   4.34935   4.36557
 Alpha virt. eigenvalues --    4.36813   4.38038   4.38670   4.39702   4.41768
 Alpha virt. eigenvalues --    4.42107   4.43290   4.44098   4.45115   4.45645
 Alpha virt. eigenvalues --    4.46467   4.47852   4.48431   4.48749   4.49732
 Alpha virt. eigenvalues --    4.50577   4.51241   4.51646   4.52203   4.53313
 Alpha virt. eigenvalues --    4.54441   4.54603   4.55018   4.55641   4.56510
 Alpha virt. eigenvalues --    4.57643   4.60585   4.62524   4.68077   4.68469
 Alpha virt. eigenvalues --    4.68653   4.69628   4.69788   4.70405   4.73683
 Alpha virt. eigenvalues --    4.75410   4.76775   4.78284   4.78782   4.79080
 Alpha virt. eigenvalues --    4.79959   4.80324   4.81875   4.82271   4.83102
 Alpha virt. eigenvalues --    4.83474   4.83873   4.84290   4.84646   4.84946
 Alpha virt. eigenvalues --    4.85505   4.86037   4.86348   4.87280   4.87486
 Alpha virt. eigenvalues --    4.87878   4.88230   4.88431   4.89418   4.89515
 Alpha virt. eigenvalues --    4.89919   4.90118   4.90636   4.91135   4.91198
 Alpha virt. eigenvalues --    4.91553   4.91805   4.91926   4.92206   4.92426
 Alpha virt. eigenvalues --    4.92737   4.92894   4.93176   4.93818   4.94074
 Alpha virt. eigenvalues --    4.94283   4.94595   4.94978   4.95167   4.95716
 Alpha virt. eigenvalues --    4.96109   4.96279   4.96436   4.96986   4.97401
 Alpha virt. eigenvalues --    4.97721   4.98040   4.98604   4.98893   4.98965
 Alpha virt. eigenvalues --    4.99831   5.00081   5.00376   5.01410   5.01488
 Alpha virt. eigenvalues --    5.01819   5.02206   5.02805   5.03936   5.04441
 Alpha virt. eigenvalues --    5.05160   5.05466   5.05966   5.06059   5.07067
 Alpha virt. eigenvalues --    5.07293   5.07844   5.08014   5.08946   5.08972
 Alpha virt. eigenvalues --    5.09475   5.10197   5.10651   5.11315   5.11495
 Alpha virt. eigenvalues --    5.12240   5.12494   5.12958   5.13423   5.13538
 Alpha virt. eigenvalues --    5.14228   5.14697   5.14904   5.15255   5.15408
 Alpha virt. eigenvalues --    5.15607   5.16420   5.16696   5.17059   5.17335
 Alpha virt. eigenvalues --    5.17829   5.18265   5.18572   5.19203   5.19637
 Alpha virt. eigenvalues --    5.20319   5.20438   5.20554   5.21072   5.21599
 Alpha virt. eigenvalues --    5.21708   5.22340   5.22657   5.22953   5.23421
 Alpha virt. eigenvalues --    5.23620   5.24576   5.24896   5.25116   5.25852
 Alpha virt. eigenvalues --    5.26279   5.26735   5.26976   5.27437   5.27793
 Alpha virt. eigenvalues --    5.27988   5.28657   5.28770   5.29217   5.29547
 Alpha virt. eigenvalues --    5.30270   5.30653   5.31668   5.31882   5.32136
 Alpha virt. eigenvalues --    5.32247   5.32548   5.32821   5.33599   5.33814
 Alpha virt. eigenvalues --    5.34098   5.34163   5.35337   5.35826   5.36691
 Alpha virt. eigenvalues --    5.36871   5.37177   5.37855   5.38067   5.38300
 Alpha virt. eigenvalues --    5.39188   5.39760   5.40477   5.40842   5.41088
 Alpha virt. eigenvalues --    5.41325   5.42287   5.42801   5.43987   5.44487
 Alpha virt. eigenvalues --    5.44916   5.45223   5.45566   5.46200   5.46454
 Alpha virt. eigenvalues --    5.46904   5.47345   5.48102   5.48635   5.49747
 Alpha virt. eigenvalues --    5.49798   5.50173   5.51719   5.52284   5.52461
 Alpha virt. eigenvalues --    5.53376   5.54672   5.54881   5.55466   5.56614
 Alpha virt. eigenvalues --    5.57032   5.57727   5.58158   5.58752   5.60287
 Alpha virt. eigenvalues --    5.60976   5.61697   5.62894   5.63004   5.63376
 Alpha virt. eigenvalues --    5.63542   5.63894   5.64806   5.65130   5.65668
 Alpha virt. eigenvalues --    5.66808   5.67626   5.68826   5.69020   5.71746
 Alpha virt. eigenvalues --    5.72713   5.73519   5.73922   5.74562   5.75100
 Alpha virt. eigenvalues --    5.75962   5.76648   5.77629   5.78064   5.78792
 Alpha virt. eigenvalues --    5.78984   5.79887   5.80992   5.81402   5.82185
 Alpha virt. eigenvalues --    5.83785   5.85431   5.85577   5.86521   5.88130
 Alpha virt. eigenvalues --    5.88681   5.89094   5.89743   5.90309   5.91067
 Alpha virt. eigenvalues --    5.91383   5.91501   5.95496   5.97965   6.12041
 Alpha virt. eigenvalues --    6.18618   6.18963   6.19036   6.20111   6.21716
 Alpha virt. eigenvalues --    6.26142   6.26613   6.26691   6.28233   6.29072
 Alpha virt. eigenvalues --    6.35750   6.39055   6.39955   6.43388   6.47288
 Alpha virt. eigenvalues --    6.48052   6.49396   6.49904   6.50910   6.52931
 Alpha virt. eigenvalues --    6.54033   6.58344   6.62187   6.62778   6.64311
 Alpha virt. eigenvalues --    6.64781   6.65742   6.66291   6.67026   6.67252
 Alpha virt. eigenvalues --    6.68123   6.69197   6.69631   6.70422   6.71099
 Alpha virt. eigenvalues --    6.71601   6.72548   6.72917   6.74993   6.75605
 Alpha virt. eigenvalues --    6.75924   6.77028   6.78719   6.81325   7.25985
 Alpha virt. eigenvalues --    8.19434   8.19594   8.19744   8.20363   8.28270
 Alpha virt. eigenvalues --    8.29451   8.30005   8.30356   8.30954   8.31678
 Alpha virt. eigenvalues --    8.32215   8.33384   8.34172   8.34828   8.35698
 Alpha virt. eigenvalues --    8.35984   8.36846   8.38529   8.38905   8.40859
 Alpha virt. eigenvalues --    8.43465   8.43774   8.44093   8.45642   8.46277
 Alpha virt. eigenvalues --    8.48337   8.49268   8.49748   8.50512   8.50839
 Alpha virt. eigenvalues --    8.51129   8.51994   8.52230   8.52619   8.53473
 Alpha virt. eigenvalues --    8.54889   8.56616   8.58662   8.60179   8.60609
 Alpha virt. eigenvalues --    8.61330   8.62365   8.63172   8.64329   8.64840
 Alpha virt. eigenvalues --    8.65911   8.67441   8.67575   8.68572   8.71790
 Alpha virt. eigenvalues --    9.20055   9.20409   9.21245   9.22631   9.24856
 Alpha virt. eigenvalues --    9.29572   9.29927   9.30903   9.31789   9.33394
 Alpha virt. eigenvalues --    9.33657   9.34088   9.34558   9.36285   9.36796
 Alpha virt. eigenvalues --    9.37267   9.37894   9.38427   9.39778   9.41077
 Alpha virt. eigenvalues --    9.41294   9.41666   9.42252   9.42485   9.42733
 Alpha virt. eigenvalues --    9.43033   9.43859   9.46913   9.47187   9.49408
 Alpha virt. eigenvalues --   10.82764  10.83962  10.84879  10.86170  10.86885
 Alpha virt. eigenvalues --   10.88318  10.88416  10.88679  10.90463  10.90958
 Alpha virt. eigenvalues --   11.56559  11.58877  11.59657  11.60039  11.61433
 Alpha virt. eigenvalues --   11.61789  11.62222  11.63968  11.64754  11.64974
 Alpha virt. eigenvalues --   11.65259  11.66274  11.68414  11.75073  11.75535
 Alpha virt. eigenvalues --   14.17265  14.17727  14.17883  14.18193  14.19598
 Alpha virt. eigenvalues --   14.20963  14.21364  14.21569  14.21703  14.22102
 Alpha virt. eigenvalues --   14.22287  14.23088  14.23277  14.23623  14.23801
 Alpha virt. eigenvalues --   14.24121  14.24224  14.24686  14.24805  14.24981
 Alpha virt. eigenvalues --   14.25025  14.25208  14.25842  14.26161  14.26338
 Alpha virt. eigenvalues --   14.26477  14.26883  14.27135  14.27369  14.27848
 Alpha virt. eigenvalues --   14.27974  14.28227  14.28599  14.28794  14.29012
 Alpha virt. eigenvalues --   14.29213  14.29761  14.30886  14.31411  14.31816
 Alpha virt. eigenvalues --   14.32339  14.32971  14.33021  14.33620  14.33722
 Alpha virt. eigenvalues --   14.34075  14.34306  14.35324  14.36023  14.36684
 Alpha virt. eigenvalues --   14.37413  14.38270  14.39861  14.40071  14.41098
 Alpha virt. eigenvalues --   14.41491  14.41628  14.41695  14.41961  14.42216
 Alpha virt. eigenvalues --   14.42554  14.42996  14.43578  14.44627  14.45291
 Alpha virt. eigenvalues --   14.46770  14.47165  14.47306  14.47532  14.48559
 Alpha virt. eigenvalues --   14.48764  14.49558  14.49855  14.50665  14.50833
 Alpha virt. eigenvalues --   14.51105  14.51302  14.53040  14.54434  14.55911
 Alpha virt. eigenvalues --   14.56126  14.56159  14.56639  14.57033  14.57610
 Alpha virt. eigenvalues --   14.58218  14.59041  14.60102  14.61300  14.65055
 Alpha virt. eigenvalues --   14.66099  14.67088  14.67670  14.69577  14.71479
 Alpha virt. eigenvalues --   14.96031  14.96235  14.96567  14.97746  15.12198
 Alpha virt. eigenvalues --   17.59854  17.60513  17.61806  17.63797  17.68258
 Alpha virt. eigenvalues --   17.73041  17.73269  17.74357  17.75249  17.75888
 Alpha virt. eigenvalues --   17.80342  17.82614  17.83054  17.83785  17.88518
 Alpha virt. eigenvalues --   36.92644  36.93587  36.94666  37.00260  37.01894
 Alpha virt. eigenvalues --   49.66879  49.67680  49.68267  49.69086  49.69297
 Alpha virt. eigenvalues --   49.69949  49.70682  49.70777  49.71212  49.73103
 Alpha virt. eigenvalues --   49.75568  49.76082  49.76598  49.77576  49.77884
 Alpha virt. eigenvalues --   50.02506  50.03339  50.03986  50.04372  50.05403
 Alpha virt. eigenvalues --  189.59713 189.60041 189.60828 189.62632 189.67151
          Condensed to atoms (all electrons):
 Mulliken charges:
               1
     1  S    0.485892
     2  O   -0.436683
     3  O   -0.664643
     4  O   -0.485278
     5  O   -0.449421
     6  H    0.587408
     7  H    0.516210
     8  S    0.556243
     9  O   -0.493597
    10  O   -0.684072
    11  O   -0.439508
    12  O   -0.489251
    13  H    0.541210
    14  S    0.060151
    15  O   -0.654080
    16  O   -0.351854
    17  O   -0.446483
    18  O   -0.385449
    19  H    0.541434
    20  S    0.501904
    21  O   -0.739571
    22  O   -0.494777
    23  O   -0.416968
    24  O   -0.431667
    25  H    0.525631
    26  H    0.296204
    27  H    0.655341
    28  S    0.544289
    29  O   -0.522922
    30  O   -0.382573
    31  O   -0.592866
    32  O   -0.680229
    33  H    0.520943
    34  H    0.591855
    35  N   -1.193201
    36  H    0.517750
    37  H    0.521154
    38  H    0.503154
    39  N   -0.997315
    40  H    0.153743
    41  H    0.523043
    42  H    0.517522
    43  N   -1.019843
    44  H    0.297513
    45  H    0.586909
    46  H    0.624621
    47  N   -0.983627
    48  H    0.572353
    49  H    0.584446
    50  H    0.633858
    51  N   -0.963967
    52  H    0.297553
    53  H    0.595111
    54  H    0.594251
    55  H    0.952145
 Sum of Mulliken charges =   0.00000
 Mulliken charges with hydrogens summed into heavy atoms:
               1
     1  S    0.485892
     2  O   -0.436683
     3  O   -0.148433
     4  O   -0.485278
     5  O   -0.449421
     8  S    0.556243
     9  O   -0.493597
    10  O   -0.142862
    11  O   -0.439508
    12  O   -0.489251
    14  S    0.060151
    15  O    0.298065
    16  O   -0.351854
    17  O   -0.446483
    18  O   -0.385449
    20  S    0.501904
    21  O   -0.213940
    22  O   -0.494777
    23  O   -0.416968
    24  O   -0.431667
    28  S    0.544289
    29  O   -0.522922
    30  O   -0.382573
    31  O   -0.592866
    32  O   -0.159286
    35  N    1.004198
    39  N    0.738428
    43  N    1.081056
    47  N    1.103233
    51  N    1.110357
 Electronic spatial extent (au):  <R**2>=          18034.4165
 Charge=              0.0000 electrons
 Dipole moment (field-independent basis, Debye):
    X=              1.5502    Y=             -4.8753    Z=             -2.1306  Tot=              5.5418
 Quadrupole moment (field-independent basis, Debye-Ang):
   XX=           -217.0991   YY=           -200.1709   ZZ=           -215.8705
   XY=             25.2154   XZ=              5.3032   YZ=             -3.8684
 Traceless Quadrupole moment (field-independent basis, Debye-Ang):
   XX=             -6.0523   YY=             10.8760   ZZ=             -4.8237
   XY=             25.2154   XZ=              5.3032   YZ=             -3.8684
 Octapole moment (field-independent basis, Debye-Ang**2):
  XXX=             95.7819  YYY=           -122.9375  ZZZ=             49.3434  XYY=             28.5096
  XXY=             41.8022  XXZ=            -39.9192  XZZ=            -43.3989  YZZ=              3.0858
  YYZ=            -92.0001  XYZ=             -7.6975
 Hexadecapole moment (field-independent basis, Debye-Ang**3):
 XXXX=         -10889.5339 YYYY=          -6026.3890 ZZZZ=          -3775.0138 XXXY=            272.9504
 XXXZ=            685.1776 YYYX=            439.9447 YYYZ=            161.1588 ZZZX=           -130.3898
 ZZZY=           -300.5816 XXYY=          -2675.6512 XXZZ=          -2353.0907 YYZZ=          -1671.3170
 XXYZ=           -149.2360 YYXZ=            -18.5743 ZZXY=            130.2582
 N-N= 5.296053436391D+03 E-N=-1.955573967671D+04  KE= 3.776903504298D+03
 Calling FoFJK, ICntrl=      2527 FMM=F ISym2X=0 I1Cent= 4 IOpClX= 0 NMat=1 NMatS=1 NMatT=0.
 ***** Axes restored to original set *****
 -------------------------------------------------------------------
 Center     Atomic                   Forces (Hartrees/Bohr)
 Number     Number              X              Y              Z
 -------------------------------------------------------------------
      1       16           0.000078227   -0.000029063    0.000008111
      2        8           0.000005048    0.000013980   -0.000007319
      3        8          -0.000046436    0.000034064    0.000015351
      4        8          -0.000044026    0.000030800   -0.000019451
      5        8          -0.000000735   -0.000009198    0.000015107
      6        1          -0.000022939   -0.000044687   -0.000026104
      7        1           0.000004513    0.000005605    0.000006006
      8       16           0.000027240    0.000100443    0.000005531
[...]
 00000622,0.00008000,0.00009634,-0.00000090,-0.00000114,0.00002108,-0.0
 0001626,0.00006235,0.00000629,0.00001653,-0.00001987,-0.00007130,0.000
 00503,0.00000458,0.00000908,-0.00003786,0.00003272,0.00003147,-0.00002
 136,0.00000458,0.00000736,-0.00001292,-0.00004320,-0.00000785,0.000005
 60,0.00000270,0.00000558,0.00000685,0.00001825,-0.00001002,0.00000600,
 0.00001225,0.00000583,0.00001294,-0.00001072,-0.00002754,-0.00000116,-
 0.00002501,0.00003225,0.00000433,0.00004899,0.00005255,0.00000074,0.00
 000181,0.00001282,-0.00000296,0.09192805,0.15078837,-0.24935408,-0.100
 10913,-0.16400563,0.26251297,0.00541397,0.02232699,-0.00155286,-0.0033
 1079,-0.00553281,-0.00209343,0.00293454,-0.00446260,0.00039578,-0.0044
 9444,-0.01614113,0.00338509,-0.00334469,-0.00420074,0.00471499,-0.0178
 1670,0.00731222,-0.00829796,-0.00110191,0.00015296,-0.00060920,0.00007
 189,-0.00029361,0.00555657,0.00157021,-0.00159679,-0.00429514,-0.00029
 123,-0.00061924,-0.00100589,0.00068540,0.00036337,-0.00112782,-0.00075
 451,0.00103088,-0.00140353,0.00021182,0.00009994,0.00015771,-0.0035595
 7,-0.00304269,0.00187049,0.00099250,0.00013314,-0.00037579,0.00073586,
 0.00069202,-0.00075526,0.00037023,0.00226781,-0.00061603,0.00328906,0.
 00257423,-0.00030858,0.00009245,-0.00107281,0.00021438,0.00098189,-0.0
 0066341,-0.00010262,-0.00014816,0.00014066,-0.00006752,-0.00044488,0.0
 0009980,-0.00021767,-0.00026511,0.00042592,-0.00000021,-0.00064511,0.0
 0026148,0.00030329,0.00001334,-0.00002440,0.00004013,0.00007370,0.0000
 5511,0.00001729,-0.00019883,0.00002730,0.00030492,-0.00071379,-0.00043
 969,0.00029452,0.00012097,0.00025487,-0.00002253,0.00016021,0.00009656
 ,-0.00014638,0.00061057,0.00012940,-0.00034500,0.00021072,0.00000781,0
 .00000862,-0.00005928,-0.00001621,-0.00001666,-0.00035463,-0.00022805,
 0.00023182,0.00014147,0.00019635,-0.00017764,-0.00023706,-0.00032746,0
 .00004936,0.00013995,-0.00025290,0.00016943,-0.00010278,-0.00001335,0.
 00000149,-0.00102440,0.00112213,0.00005525,0.00017648,-0.00052373,0.00
 090248,-0.00002493,0.00001139,-0.00005551,0.00258261,-0.00128966,-0.00
 083605,0.00009498,0.00014768,-0.00024134,0.00001987,-0.00003836,-0.000
 00205,0.00005750,-0.00011765,0.00002364,0.00011539,-0.00004699,0.00026
 713,-0.00163715,-0.00031245,0.00002475,0.00096565,-0.00078464,0.000545
 29,0.00241277,0.00121994,-0.00028747,0.00033265,-0.00006704,-0.0002675
 7,-0.20304601,0.09774244,-0.08059119,0.01564205,-0.00917548,0.00667135
 ,0.21284723,-0.00084738,-0.02357132,0.00468947,0.00131322,0.00449266,0
 .00104140,-0.00291992,0.00399428,-0.00030937,-0.00498726,0.01132115,-0
 .00630393,0.00222064,0.00278481,-0.00369968,-0.01421653,0.02033076,-0.
 00816375,0.00104419,-0.00008913,0.00053213,0.00053780,0.00045303,-0.00
 489438,-0.00150440,0.00111298,0.00320457,0.00013960,0.00031398,0.00077
 111,-0.00081143,-0.00039543,0.00095621,0.00032989,-0.00116839,0.001216
 63,-0.00008716,-0.00011980,-0.00019213,0.00221267,0.00223112,-0.002184
 40,-0.00027069,-0.00031003,0.00033240,-0.00009008,-0.00053773,0.000817
 36,-0.00033408,-0.00190942,0.00067399,-0.00243313,-0.00396580,0.000469
 02,-0.00000464,0.00147637,0.00003943,-0.00101309,0.00043579,0.00028523
 ,0.00015031,-0.00006023,-0.00005496,0.00044670,-0.00005074,0.00016381,
 0.00034122,-0.00028457,-0.00007584,0.00066778,-0.00019822,-0.00039318,
 -0.00002041,0.00001743,-0.00001488,-0.00004564,-0.00006810,-0.00002231
 ,0.00006023,0.00006697,-0.00011779,0.00040401,0.00038356,-0.00017987,-
 0.00004818,-0.00024792,0.00000584,-0.00009128,-0.00008443,0.00008752,-
 0.00033410,-0.00013464,0.00019271,-0.00009488,-0.00004515,0.00001139,0
 .00003496,0.00002164,0.00000254,0.00020619,0.00014304,-0.00015278,-0.0
 0009537,-0.00026011,0.00008175,0.00027175,0.00041017,-0.00002601,-0.00
 014957,0.00024129,-0.00013351,0.00006074,0.00000847,-0.00000293,0.0010
 3218,-0.00098416,-0.00027938,-0.00062552,0.00020644,-0.00024840,-0.000
 16388,-0.00013755,0.00009635,-0.00194584,0.00088711,0.00106548,-0.0000
 2295,-0.00012555,0.00018574,-0.00002519,0.00002347,-0.00000138,-0.0000
 9637,0.00013171,-0.00002046,-0.00011539,0.00003311,-0.00022218,0.00142
 969,0.00033087,-0.00005813,-0.00089944,0.00059560,-0.00047726,-0.00209
 693,-0.00128411,0.00032518,-0.00032417,0.00002195,0.00033270,0.0913536
 8,-0.11833765,0.05293621,0.01335070,-0.00937577,0.00573427,-0.09339307
 ,0.12133531,0.00271671,0.01398650,-0.00166689,-0.00189556,-0.00326918,
 -0.00186997,0.00252456,-0.00361428,0.00066515,0.00005270,-0.00967690,-
 0.00124623,-0.00077637,-0.00148318,0.00149344,-0.00961094,0.00352637,-
 0.00626702,-0.00068912,0.00002551,-0.00037461,0.00135997,-0.00183916,0
 .00400116,0.00092170,-0.00130205,-0.00487268,-0.00026537,-0.00024321,-
 0.00093750,0.00019434,0.00040309,-0.00086771,-0.00128496,0.00150485,-0
 .00087888,0.00013232,-0.00001884,0.00010185,-0.00219802,-0.00163281,0.
 00228225,0.00057978,0.00009472,-0.00042003,0.00010100,0.00022694,-0.00
 111033,0.00027717,0.00121574,-0.00053559,0.00218059,0.00167349,-0.0004
 7898,0.00032159,-0.00078765,-0.00043478,0.00069087,0.00002152,-0.00001
 570,-0.00009642,-0.00000722,0.00001768,-0.00035910,-0.00002938,-0.0001
 9929,-0.00035221,-0.00004166,0.00002425,-0.00037986,0.00004450,0.00013
 954,0.00002182,0.00000226,0.00000648,0.00002135,0.00003020,0.00002299,
 -0.00006228,0.00000843,0.00018305,-0.00032818,-0.00024379,0.00025292,0
 .00004876,0.00013439,-0.00003456,0.00004265,0.00004257,-0.00013972,0.0
 0031544,0.00006880,-0.00022536,0.00008215,0.00002041,-0.00002012,-0.00
 002788,-0.00000920,-0.00000209,-0.00020267,-0.00012388,0.00014455,0.00
 001003,0.00010039,-0.00010577,-0.00008514,-0.00017079,0.00002456,0.000
 12468,-0.00014895,0.00009008,0.00001688,0.00000245,0.00001803,-0.00079
 100,0.00034398,0.00028914,0.00076558,0.00008515,0.00036321,0.00029489,
 0.00018532,-0.00019133,0.00103041,-0.00007032,-0.00073957,0.00004122,0
 .00008700,-0.00017149,0.00001331,-0.00001565,0.00000417,0.00004456,-0.
 00007124,0.00001763,0.00009761,-0.00001920,0.00021310,-0.00085312,-0.0
 0019278,-0.00003513,0.00052284,-0.00041668,0.00034256,0.00123721,0.000
 70827,-0.00010596,0.00015855,0.00000956,-0.00007821,-0.07211997,0.0506
 1418,-0.09946655,-0.02015686,0.01085345,-0.01034238,0.07972997,-0.0536
 8482,0.10363209,-0.00001675,0.00295887,-0.00177092,-0.00024028,-0.0008
 2063,0.00020667,0.00047397,-0.00059977,0.00027968,0.00068904,-0.002190
 34,0.00051953,-0.00055362,-0.00039740,0.00107992,0.01880599,-0.0078365
 8,-0.01550644,-0.00012584,0.00005350,-0.00012301,-0.00025335,-0.004129
 68,0.01665103,-0.00289364,0.00019741,-0.01198092,-0.00068743,-0.002791
 24,-0.00447419,0.00210001,0.00102618,-0.00242763,-0.00257689,0.0030620
 5,-0.00333087,0.00077292,0.00035116,0.00006243,0.00360788,-0.00080811,
 -0.00448956,-0.00125619,0.00063103,0.00061079,-0.00044446,0.00119627,0
 .00199646,-0.00090591,-0.00049650,0.00096289,-0.00461580,-0.00257531,0
 .00112496,0.00027837,-0.00178049,-0.00026142,0.00025831,-0.00069275,-0
 .00038511,-0.00003539,0.00012198,0.00003208,-0.00001942,0.00014367,0.0
 0012268,-0.00009237,0.00051707,0.00010237,-0.00029553,0.00021596,0.000
 30862,-0.00000577,-0.00003687,0.00001050,0.00001573,0.00002962,-0.0000
 0771,0.00008040,-0.00041221,-0.00033083,-0.00018264,-0.00038020,-0.000
 43761,-0.00000730,0.00034471,0.00013653,0.00018476,0.00014478,0.000296
 21,-0.00008845,0.00024399,0.00027913,0.00003980,0.00005610,0.00006228,
 -0.00001276,-0.00003037,-0.00001217,0.00032454,0.00009273,-0.00018969,
 0.00032876,0.00068907,0.00017156,-0.00082771,-0.00109808,0.00005867,0.
 00013059,-0.00027633,0.00012369,-0.00033171,-0.00003941,-0.00007486,-0
 .00039994,0.00095357,0.00040495,0.00019435,-0.00023986,-0.00025062,0.0
 0000368,-0.00005259,-0.00000630,0.00077150,-0.00022404,-0.00039963,-0.
 00022588,0.00002527,0.00014183,0.00000833,-0.00000419,-0.00000344,0.00
 014749,-0.00017452,0.00000255,-0.00002123,-0.00002723,-0.00010961,-0.0
 0028946,-0.00011789,0.00015024,0.00008050,0.00001861,-0.00003821,0.000
 45749,0.00032756,-0.00013423,0.00014744,-0.00003960,-0.00026646,-0.101
 75186,0.05694046,0.06942405,-0.00548000,0.00541894,0.00557976,-0.00999
 117,0.01225380,0.01612145,0.10438691,0.00027706,-0.00350361,0.00175994
 ,0.00010762,0.00079681,-0.00025019,-0.00074543,0.00075814,-0.00027311,
 -0.00136833,0.00290710,-0.00122535,0.00049894,0.00053941,-0.00122151,0
 .00768196,-0.01275361,-0.01156083,0.00019358,-0.00001583,0.00016449,-0
 .00172682,0.00501463,-0.02090649,-0.00154714,-0.00495575,0.01571296,0.
 00098750,0.00208657,0.00346214,-0.00449573,-0.00232742,0.00533454,0.00
 276639,-0.00434194,0.00443140,-0.00061852,-0.00043879,-0.00028574,-0.0
 0442617,-0.00155377,0.00158669,0.00154318,-0.00046265,-0.00026015,0.00
 143099,0.00025619,-0.00112504,0.00087985,0.00106103,-0.00047708,0.0025
 6183,0.00212560,-0.00036714,-0.00007042,0.00281483,0.00082217,-0.00034
 204,0.00062050,0.00071350,0.00004249,-0.00006551,-0.00016861,0.0000143
 1,-0.00012652,-0.00023182,0.00017265,-0.00051184,-0.00022498,0.0003819
 5,-0.00020186,-0.00045921,0.00000099,0.00003983,0.00001471,-0.00001185
 ,-0.00004701,0.00000248,-0.00047018,0.00054350,0.00081108,-0.00028607,
 0.00035905,0.00078803,0.00012131,-0.00036564,-0.00020125,-0.00013199,-
 0.00016955,-0.00048041,0.00048670,-0.00024238,-0.00051919,0.00012916,-
 0.00011906,-0.00006402,-0.00002215,0.00004565,-0.00000411,-0.00050793,
 -0.00021587,0.00028516,-0.00040815,-0.00106824,-0.00041889,0.00125091,
 0.00185294,0.00014864,-0.00015789,0.00032556,-0.00010123,0.00036032,0.
 00003231,0.00008936,0.00044880,-0.00123567,-0.00073584,-0.00021045,-0.
 00028434,0.00081069,-0.00019382,0.00001518,0.00005298,-0.00062180,0.00
 014783,0.00043755,0.00031851,0.00000113,-0.00021748,-0.00001735,-0.000
 01202,0.00000200,-0.00021776,0.00020559,0.00000343,0.00002441,0.000006
 38,0.00018545,0.00020564,0.00017091,-0.00020727,0.00007742,-0.00016937
 ,0.00010893,-0.00038785,-0.00033788,0.00012210,-0.00016587,-0.00000091
 ,0.00033927,0.06181804,-0.13788201,-0.09457683,-0.01106299,0.01690137,
 0.01622260,0.00565139,-0.01006056,-0.00697898,-0.05939365,0.14338934,-
 0.00024892,-0.00472014,0.00268515,0.00016648,0.00098290,-0.00048596,-0
 .00079309,0.00101194,-0.00033210,-0.00275742,0.00451768,-0.00345406,0.
 00116293,0.00067885,-0.00201004,-0.00058685,-0.00757116,-0.00754173,0.
 00021639,-0.00004370,0.00020909,0.00315972,0.00139853,-0.02917327,-0.0
 0668072,0.00601195,0.01645085,0.00115816,0.00304255,0.00422128,-0.0046
 1089,-0.00206442,0.00458407,0.00171021,-0.00276567,0.00460364,-0.00077
 989,-0.00068308,-0.00009824,-0.00509304,-0.00120676,0.00491493,0.00159
 361,-0.00035757,-0.00081758,0.00074709,-0.00066635,-0.00269212,0.00107
 943,0.00104058,-0.00103967,0.00419385,0.00310890,-0.00104599,-0.000067
 07,0.00320595,0.00002046,-0.00015829,0.00120186,0.00077687,0.00002202,
 -0.00019282,-0.00009468,-0.00013239,-0.00025075,-0.00033413,-0.0000617
 5,-0.00091254,-0.00019903,0.00036953,-0.00036061,-0.00051842,0.0000228
 0,0.00006322,-0.00000858,-0.00002298,-0.00004336,0.00001397,-0.0002929
 8,0.00057587,0.00082753,-0.00017152,0.00030569,0.00102263,0.00009158,-
 0.00035773,-0.00024847,-0.00023591,-0.00019088,-0.00063542,0.00046624,
 -0.00021235,-0.00063180,0.00005807,-0.00006679,-0.00012461,-0.00002304
 ,0.00003327,0.00001247,-0.00052653,-0.00020824,0.00032488,-0.00059715,
 -0.00114122,-0.00043055,0.00145842,0.00194513,0.00010463,-0.00011366,0
 .00036069,-0.00012956,0.00054721,0.00004542,0.00014613,0.00029500,-0.0
 0172310,-0.00050905,0.00028151,0.00045082,0.00080441,0.00021397,0.0001
 6336,-0.00013655,-0.00127599,0.00065230,0.00055414,0.00030655,0.000012
 01,-0.00028252,-0.00001095,-0.00000508,0.00000946,-0.00018578,0.000186
 62,0.00001558,0.00007498,0.00002207,0.00028102,0.00029400,0.00017060,-
 0.00027690,0.00005652,-0.00015330,0.00014141,-0.00053051,-0.00039904,0
 .00019107,-0.00020803,0.00006396,0.00044200,0.06820597,-0.08559241,-0.
 16402020,0.00902807,-0.01407060,-0.01544300,-0.00050295,0.00584045,0.0
 1924585,-0.06950993,0.08845088,0.16930868,-0.00128100,0.00002395,-0.00
 096633,0.00075809,0.00025912,0.00043763,0.00067145,-0.00012064,0.00014
 564,0.00049115,-0.00022715,0.00032678,0.00028221,-0.00006698,0.0003291
 9,-0.00187759,-0.00188746,-0.00062280,-0.00009400,-0.00000710,-0.00005
 892,0.00204182,-0.00086919,-0.00202875,-0.00056840,0.00069333,0.001509
 69,-0.00021823,0.00048587,0.00039286,-0.00148597,-0.00024316,0.0005909
 8,-0.00054987,0.00069485,0.00027014,-0.00006109,-0.00014780,-0.0000646
 3,-0.05274180,0.02556309,-0.01164062,-0.11932067,0.04450714,0.10262226
 ,0.00711769,-0.00057304,0.01211634,0.00338839,-0.01133390,0.00403000,0
 .00644581,0.00097508,0.00018459,0.00001759,-0.00080844,-0.00014442,0.0
 0271144,0.00003729,-0.00126571,-0.00037788,-0.00009433,0.00033370,-0.0
 0135004,-0.00002558,-0.00017769,-0.00097341,0.00014303,0.00041219,-0.0
 0134465,0.00013990,0.00124999,0.00010663,-0.00003125,0.00002813,0.0000
 5198,0.00013556,0.00002921,0.00325827,-0.00149306,-0.00286997,-0.03340
 061,-0.02392417,0.01601996,0.00351873,0.00963823,-0.00061192,0.0035499
 3,0.00371252,-0.01070351,0.02272456,0.00586267,-0.02015333,0.00651174,
 0.00027894,0.00065423,-0.00098278,0.00023218,-0.00104378,0.00385743,0.
 00188674,-0.00216480,-0.00286782,0.00027016,0.00023477,0.00066653,0.00
 073851,-0.00000664,0.00042373,-0.00057375,0.00008544,0.00366737,0.0005
 9881,0.00199187,0.00060920,0.00027259,0.00126800,-0.00163670,-0.000228
 03,-0.00221571,0.00056413,0.00028294,-0.00043271,-0.00018744,0.0001121
 9,0.00003621,-0.00341782,0.00112787,0.00066433,0.00005669,-0.00003922,
 -0.00000822,0.00387284,-0.00441649,0.00039143,0.00048368,-0.00005843,0
 .00026002,0.00126524,-0.00064817,0.00102074,-0.00234087,0.00162156,-0.
 00124370,-0.00053903,-0.00016923,0.00005803,0.00032186,0.00010314,-0.0
 0089699,0.00079985,0.00104073,0.00079298,-0.00006425,-0.00011285,0.000
 06778,-0.00050081,0.00024601,-0.00025966,0.00033996,-0.00082555,-0.000
 80211,0.14760667,0.00061161,0.00021064,0.00054075,-0.00039640,-0.00017
 299,-0.00027699,-0.00027952,0.00001101,-0.00007584,-0.00017878,-0.0000
 5039,-0.00012917,-0.00010316,-0.00002718,-0.00018400,0.00082693,0.0012
 2270,0.00041318,0.00003031,0.00001093,0.00002120,-0.00123027,0.0003517
 1,0.00020877,0.00045265,-0.00028165,-0.00031633,0.00014840,-0.00011339
 ,-0.00005126,0.00074129,0.00008494,-0.00006972,0.00040938,-0.00049414,
 0.00007288,-0.00000251,0.00004924,0.00000144,0.02292154,-0.01357069,0.
 00464810,0.04874367,-0.02872287,-0.04342059,-0.00230231,-0.00195764,-0
 .00570391,-0.00053780,0.00029981,0.00141704,-0.00828474,0.00196113,-0.
 00053712,-0.00001675,0.00050424,0.00007469,-0.00043346,0.00034397,0.00
 081946,0.00004613,0.00002518,-0.00024392,0.00008544,-0.00009610,-0.000
 39256,0.00026828,-0.00038096,-0.00023054,0.00037099,-0.00010965,-0.000
 51117,-0.00003503,0.00002361,0.00002424,0.00000920,-0.00005528,-0.0000
 0415,-0.00139214,0.00123080,0.00063924,0.00676552,0.01294769,0.0001797
 6,-0.00061324,-0.00633625,-0.00131192,-0.00216128,-0.00214199,0.004679
 27,-0.00668604,-0.01675682,0.00184717,-0.00335793,-0.00053914,-0.00005
 311,0.00042666,0.00020325,0.00042124,-0.00066669,-0.00117847,0.0010407
 7,0.00112606,-0.00040504,-0.00004383,-0.00021862,-0.00018250,-0.000158
 18,-0.00024940,0.00042013,-0.00003884,-0.00122282,-0.00013366,-0.00078
 648,-0.00023534,-0.00021807,-0.00049439,0.00061966,0.00009087,0.000892
 75,-0.00016442,-0.00004843,0.00013166,0.00002752,-0.00000920,0.0000099
 0,0.00112082,-0.00035838,-0.00047374,-0.00004800,-0.00003834,-0.000067
 12,-0.00221541,0.00110335,0.00048433,0.00008605,0.00005843,0.00052017,
 -0.00032091,0.00017475,-0.00033986,0.00062209,-0.00062133,0.00054415,0
 .00027158,0.00005561,0.00001568,-0.00010512,-0.00001678,0.00032291,-0.
 00028217,-0.00066484,-0.00040566,-0.00001711,0.00007264,-0.00002069,0.
 00013317,0.00000145,0.00007176,-0.00034855,0.00045223,0.00041561,-0.05
 275900,0.05377189,0.00081837,0.00005266,0.00117687,-0.00060060,-0.0002
 2802,-0.00049990,-0.00041097,0.00006347,-0.00017023,-0.00033324,0.0001
 6462,-0.00035182,0.00001639,-0.00001021,-0.00050403,0.00156756,0.00208
 791,0.00084093,0.00004198,0.00000298,0.00004775,-0.00199973,0.00018781
 ,0.00147195,0.00064360,-0.00040379,-0.00120147,0.00026899,-0.00011499,
 -0.00024538,0.00145109,0.00045921,-0.00043014,0.00051025,-0.00036818,-
 0.00018476,0.00002488,0.00008642,0.00004969,0.00628923,-0.00475598,0.0
 3111334,0.11354524,-0.04426755,-0.15356408,-0.00070704,-0.00127884,-0.
 01070802,-0.00278925,0.00976790,-0.00532044,-0.01309666,0.00015403,-0.
 00137041,-0.00006128,0.00041678,0.00009684,-0.00189663,0.00066728,0.00
 081132,0.00026045,-0.00009829,-0.00010697,0.00086604,-0.00016955,0.000
 07417,0.00070435,-0.00057991,-0.00020647,0.00102692,-0.00030240,-0.000
 95036,-0.00005268,0.00004790,-0.00005316,-0.00003758,-0.00008832,-0.00
 001626,-0.00266893,0.00070972,-0.00006391,0.02321435,0.02043375,-0.012
 68985,-0.00267086,-0.00807440,-0.00069588,-0.00171441,-0.00205185,0.00
 581932,-0.02216611,-0.00719230,0.00760747,-0.00853711,-0.00035882,-0.0
 0008400,0.00057624,-0.00009734,0.00130459,-0.00259685,-0.00126263,0.00
 183651,0.00203087,-0.00019350,0.00008997,-0.00068498,-0.00089111,-0.00
 007788,-0.00044904,0.00070294,-0.00018907,-0.00188959,-0.00041244,-0.0
 0143416,-0.00003085,-0.00019685,-0.00055957,0.00052084,0.00010980,0.00
 088525,-0.00036891,-0.00013262,0.00023553,-0.00015377,0.00008289,0.000
 10496,0.00236528,-0.00085508,-0.00078978,-0.00001985,-0.00001552,0.000
 08874,-0.00257734,0.00321372,0.00000235,-0.00020589,0.00021527,-0.0000
 1746,-0.00103588,0.00051781,-0.00087149,0.00187208,-0.00124303,0.00103
 251,0.00036191,0.00011822,-0.00000185,-0.00030584,0.00001657,0.0007757
 9,-0.00067924,-0.00110691,-0.00084125,0.00005244,0.00008535,-0.0000336
 8,0.00038612,-0.00017719,0.00025869,-0.00050215,0.00067958,0.00080201,
 -0.08817218,0.03588298,0.13770718\\-0.00000773,-0.00000849,-0.00000152
 ,0.00000173,-0.00000703,-0.00001066,0.00000203,-0.00001124,-0.00001055
 ,-0.00000487,0.00000042,0.00000594,0.00000126,-0.00000633,-0.00001369,
 -0.00001072,-0.00001085,-0.00000621,-0.00000057,-0.00000930,-0.0000076
 4,0.00001684,-0.00002438,-0.00000685,0.00000066,0.00001141,0.00001928,
 0.00001362,0.00001505,0.00001387,-0.00000872,-0.00000321,0.00001527,0.
 00000523,-0.00000009,-0.00000312,0.00001263,-0.00000712,0.00000915,-0.
 00002198,0.00000008,-0.00000195,-0.00001062,0.00000580,0.00001558,0.00
 000111,0.00000002,0.00001196,0.00000460,0.00000066,0.00000060,0.000013
 83,0.00001762,-0.00000271,0.00000200,-0.00001536,-0.00000182,-0.000000
 12,0.00000510,0.00001740,0.00000690,-0.00001303,0.00000144,-0.00002397
 ,0.00002844,-0.00003452,-0.00000158,-0.00001989,-0.00000538,0.00000797
 ,0.00000108,-0.00002399,-0.00000355,-0.00000751,-0.00000636,-0.0000081
 5,-0.00000416,-0.00000429,0.00001224,-0.00000141,0.00000367,0.00002660
 ,0.00001576,0.00001723,-0.00001264,-0.00000679,0.00000055,-0.00000680,
 0.00000901,0.00000028,-0.00001333,0.00001136,0.00000115,-0.00001363,0.
 00002412,0.00000669,0.00000192,0.00001096,0.00000901,-0.00001536,0.000
 01019,-0.00000609,-0.00002586,0.00000187,-0.00000100,0.00001802,-0.000
 00079,-0.00000274,0.00001002,0.00000340,0.00000283,0.00001790,-0.00000
 261,0.00001466,0.00001155,-0.00000773,0.00000956,-0.00000087,-0.000003
 81,-0.00000231,-0.00000269,-0.00000307,-0.00000434,-0.00000262,-0.0000
 0317,-0.00000147,-0.00000865,0.00001572,-0.00002289,-0.00000661,0.0000
 0396,-0.00000061,-0.00000139,0.00000689,-0.00000295,0.00001105,-0.0000
 1501,0.00003772,0.00000284,0.00001529,-0.00001753,0.00000152,-0.000000
 15,-0.00000424,-0.00001761,-0.00000678,-0.00000858,-0.00001392,-0.0000
 1143,0.00000614,0.00000744,0.00000823,0.00000874,-0.00000009,0.0000016
 3,0.00000219,0.00000417,-0.00000286,-0.00000280,0.00001141,-0.00001498
 ,-0.00000901,0.00001753,0.00000451,-0.00000309\\\@


 COLLEGE PROFESSOR: SOMEONE WHO TALKS IN OTHER PEOPLE'S SLEEP.
 Job cpu time:       7 days  5 hours 55 minutes 43.5 seconds.
 File lengths (MBytes):  RWF=   9946 Int=      0 D2E=      0 Chk=    605 Scr=      1
 Normal termination of Gaussian 09 at Wed Mar 23 22:56:19 2016.
