 Entering Gaussian System, Link 0=g09
 Initial command:
 /home/user/gaussian/g09/l1.exe "/home/user/Documents/Gau-14487.inp" -scrdir="/home/user/Documents/"
 Entering Link 1 = /home/user/gaussian/g09/l1.exe PID=     14488.
  
 Copyright (c) 1988,1990,1992,1993,1995,1998,2003,2009,2013,
            Gaussian, Inc.  All Rights Reserved.
  
 This is part of the Gaussian(R) 09 program.  It is based on
 the Gaussian(R) 03 system (copyright 2003, Gaussian, Inc.),
 the Gaussian(R) 98 system (copyright 1998, Gaussian, Inc.),
 the Gaussian(R) 94 system (copyright 1995, Gaussian, Inc.),
 the Gaussian 92(TM) system (copyright 1992, Gaussian, Inc.),
 the Gaussian 90(TM) system (copyright 1990, Gaussian, Inc.),
 the Gaussian 88(TM) system (copyright 1988, Gaussian, Inc.),
 the Gaussian 86(TM) system (copyright 1986, Carnegie Mellon
 University), and the Gaussian 82(TM) system (copyright 1983,
 Carnegie Mellon University). Gaussian is a federally registered
 trademark of Gaussian, Inc.
  
 This software contains proprietary and confidential information,
 including trade secrets, belonging to Gaussian, Inc.
  
 This software is provided under written license and may be
 used, copied, transmitted, or stored only in accord with that
 written license.
  
 The following legend is applicable only to US Government
 contracts under FAR:
  
                    RESTRICTED RIGHTS LEGEND
  
 Use, reproduction and disclosure by the US Government is
 subject to restrictions as set forth in subparagraphs (a)
 and (c) of the Commercial Computer Software - Restricted
 Rights clause in FAR 52.227-19.
  
 Gaussian, Inc.
 340 Quinnipiac St., Bldg. 40, Wallingford CT 06492
  
  
 ---------------------------------------------------------------
 Warning -- This program may not be used in any manner that
 competes with the business of Gaussian, Inc. or will provide
 assistance to any competitor of Gaussian, Inc.  The licensee
 of this program is prohibited from giving any competitor of
 Gaussian, Inc. access to this program.  By using this program,
 the user acknowledges that Gaussian, Inc. is engaged in the
 business of creating and licensing software in the field of
 computational chemistry and represents and warrants to the
 licensee that it is not a competitor of Gaussian, Inc. and that
 it will not use this program in any manner prohibited above.
 ---------------------------------------------------------------
  

 Cite this work as:
 Gaussian 09, Revision D.01,
 M. J. Frisch, G. W. Trucks, H. B. Schlegel, G. E. Scuseria, 
 M. A. Robb, J. R. Cheeseman, G. Scalmani, V. Barone, B. Mennucci, 
 G. A. Petersson, H. Nakatsuji, M. Caricato, X. Li, H. P. Hratchian, 
 A. F. Izmaylov, J. Bloino, G. Zheng, J. L. Sonnenberg, M. Hada, 
 M. Ehara, K. Toyota, R. Fukuda, J. Hasegawa, M. Ishida, T. Nakajima, 
 Y. Honda, O. Kitao, H. Nakai, T. Vreven, J. A. Montgomery, Jr., 
 J. E. Peralta, F. Ogliaro, M. Bearpark, J. J. Heyd, E. Brothers, 
 K. N. Kudin, V. N. Staroverov, T. Keith, R. Kobayashi, J. Normand, 
 K. Raghavachari, A. Rendell, J. C. Burant, S. S. Iyengar, J. Tomasi, 
 M. Cossi, N. Rega, J. M. Millam, M. Klene, J. E. Knox, J. B. Cross, 
 V. Bakken, C. Adamo, J. Jaramillo, R. Gomperts, R. E. Stratmann, 
 O. Yazyev, A. J. Austin, R. Cammi, C. Pomelli, J. W. Ochterski, 
 R. L. Martin, K. Morokuma, V. G. Zakrzewski, G. A. Voth, 
 P. Salvador, J. J. Dannenberg, S. Dapprich, A. D. Daniels, 
 O. Farkas, J. B. Foresman, J. V. Ortiz, J. Cioslowski, 
 and D. J. Fox, Gaussian, Inc., Wallingford CT, 2013.
 
 ******************************************
 Gaussian 09:  EM64L-G09RevD.01 24-Apr-2013
                12-Mar-2016 
 ******************************************
 %mem=950MW
 %nproc=8
 Will use up to    8 processors via shared memory.
 ------------------------------------------
 # pw91pw91/6-311++G(3df,3pd)/auto opt freq
 ------------------------------------------
 1/14=-1,18=20,19=15,26=3,38=1/1,3;
 2/9=110,12=2,17=6,18=5,40=1/2;
 3/5=4,6=6,7=1616,11=2,16=1,25=1,30=1,71=1,74=608,82=28/1,2,3;
 4//1;
 5/5=2,38=5/2;
 6/7=2,8=2,9=2,10=2,28=1/1;
 7//1,2,3,16;
 1/14=-1,18=20,19=15,26=3/3(2);
 2/9=110/2;
 99//99;
 2/9=110/2;
 3/5=4,6=6,7=1616,11=2,16=1,25=1,30=1,71=1,74=608,82=28/1,2,3;
 4/5=5,16=3,69=1/1;
 5/5=2,38=5/2;
 7//1,2,3,16;
 1/14=-1,18=20,19=15,26=3/3(-5);
 2/9=110/2;
 6/7=2,8=2,9=2,10=2,19=2,28=1/1;
 99/9=1/99;
 -------------------
 Title Card Required
 -------------------
 Symbolic Z-matrix:
 Charge =  0 Multiplicity = 1
 16                   -4.77147   0.02791  -0.3934 
 8                    -4.4296   -0.71418  -1.61966 
 8                    -6.41156   0.14147  -0.51748 
 8                    -4.51481  -0.70305   0.87076 
 8                    -4.26641   1.42193  -0.35387 
 1                    -1.6158   -2.22267  -2.09975 
 1                    -6.71774   0.48719   0.34206 
 16                   -0.01877  -3.12376   1.66082 
 8                     0.01587  -1.95139   2.58981 
 8                    -0.06302  -4.45448   2.625 
 8                    -1.27554  -3.2463    0.91683 
 8                     1.22569  -3.22613   0.86999 
 1                     3.02307  -1.77705  -1.62798 
 1                     0.73892  -4.41819   3.18018 
 16                   -0.15901  -0.11083  -1.84684 
 8                     1.16607   0.0431   -1.10062 
 8                    -1.29357  -0.1141   -0.869 
 8                    -0.30339   1.0254   -2.80439 
 8                    -0.11592  -1.45076  -2.56038 
 1                    -2.98738  -0.25095   1.64805 
 16                    0.10193   3.28372   1.49822 
 8                     0.14048   4.81303   2.10683 
 8                     1.35662   2.63438   1.92952 
 8                    -1.12518   2.65672   2.02 
 8                     0.06127   3.56091   0.03528 
 1                     0.16868   4.71811   3.07787 
 1                    -1.525     2.00801  -2.15729 
 1                     1.38215  -0.80575   2.11409 
 16                    4.82262  -0.04995  -0.4529 
 8                     4.62707   1.40697  -0.25826 
 8                     4.48006  -0.84222   0.75264 
 8                     4.25187  -0.57622  -1.70783 
 8                     6.43727  -0.26678  -0.69286 
 1                     6.87392   0.05503   0.11853 
 1                     1.82431   1.48194  -1.42337 
 7                     2.27638  -2.52348  -1.66655 
 1                     1.97548  -2.79041  -0.70401 
 1                     2.63401  -3.34697  -2.15541 
 1                     1.41969  -2.13491  -2.15162 
 7                     1.91433  -0.11206   1.55031 
 1                     2.92566  -0.3714    1.46102 
 1                     1.79501   0.85516   1.91156 
 1                     1.51807  -0.12247   0.57563 
 7                    -1.96346  -0.05044   1.74298 
 1                    -1.47193  -0.76746   2.30635 
 1                    -1.77907   0.90879   2.08836 
 1                    -1.57758  -0.0973    0.76315 
 7                     2.3152    2.43176  -1.37569 
 1                     2.42638   2.81149  -2.31749 
 1                     3.25108   2.24575  -0.93591 
 1                     1.70641   3.0499   -0.80188 
 7                    -2.13136   2.64668  -1.5644 
 1                    -2.90906   2.08907  -1.11716 
 1                    -2.53333   3.39504  -2.13279 
 1                    -1.50137   3.05595  -0.84046 
 7                    -2.44551  -2.61648  -1.57902 
 1                    -2.79852  -3.46299  -2.03013 
 1                    -3.20716  -1.88232  -1.53835 
 1                    -2.1086   -2.84234  -0.61951 
 
 Add virtual bond connecting atoms H35        and O16        Dist= 3.05D+00.
 Add virtual bond connecting atoms H47        and O17        Dist= 3.13D+00.
 Add virtual bond connecting atoms H58        and O2         Dist= 3.20D+00.
 Add virtual bond connecting atoms H53        and O5         Dist= 3.20D+00.
 Add virtual bond connecting atoms O4         and H20        Dist= 3.35D+00.
 Add virtual bond connecting atoms H6         and O19        Dist= 3.30D+00.
 Add virtual bond connecting atoms H27        and O18        Dist= 3.21D+00.
 Add virtual bond connecting atoms O32        and H13        Dist= 3.25D+00.
 Add virtual bond connecting atoms H43        and O16        Dist= 3.25D+00.
 Add virtual bond connecting atoms O30        and H50        Dist= 3.30D+00.
 Add virtual bond connecting atoms O31        and H41        Dist= 3.35D+00.
 Add virtual bond connecting atoms H39        and O19        Dist= 3.27D+00.
 Add virtual bond connecting atoms H28        and O9         Dist= 3.49D+00.
 Add virtual bond connecting atoms H37        and O12        Dist= 3.40D+00.
 Add virtual bond connecting atoms H45        and O9         Dist= 3.63D+00.
 Add virtual bond connecting atoms H59        and O11        Dist= 3.39D+00.
 Add virtual bond connecting atoms H42        and O23        Dist= 3.46D+00.
 Add virtual bond connecting atoms H46        and O24        Dist= 3.53D+00.
 Add virtual bond connecting atoms H51        and O25        Dist= 3.62D+00.
 Add virtual bond connecting atoms H55        and O25        Dist= 3.52D+00.

 GradGradGradGradGradGradGradGradGradGradGradGradGradGradGradGradGradGrad
 Berny optimization.
 Initialization pass.
                           ----------------------------
                           !    Initial Parameters    !
                           ! (Angstroms and Degrees)  !
 --------------------------                            --------------------------
 ! Name  Definition              Value          Derivative Info.                !
 --------------------------------------------------------------------------------
 ! R1    R(1,2)                  1.4735         estimate D2E/DX2                !
 ! R2    R(1,3)                  1.6487         estimate D2E/DX2                !
 ! R3    R(1,4)                  1.4827         estimate D2E/DX2                !
 ! R4    R(1,5)                  1.4832         estimate D2E/DX2                !
 ! R5    R(2,58)                 1.6928         estimate D2E/DX2                !
 ! R6    R(3,7)                  0.9757         estimate D2E/DX2                !
 ! R7    R(4,20)                 1.7725         estimate D2E/DX2                !
 ! R8    R(5,53)                 1.6941         estimate D2E/DX2                !
 ! R9    R(6,19)                 1.7486         estimate D2E/DX2                !
 ! R10   R(6,56)                 1.0558         estimate D2E/DX2                !
 ! R11   R(8,9)                  1.4962         estimate D2E/DX2                !
 ! R12   R(8,10)                 1.6439         estimate D2E/DX2                !
 ! R13   R(8,11)                 1.4656         estimate D2E/DX2                !
 ! R14   R(8,12)                 1.478          estimate D2E/DX2                !
 ! R15   R(9,28)                 1.8454         estimate D2E/DX2                !
 ! R16   R(9,45)                 1.9224         estimate D2E/DX2                !
 ! R17   R(10,14)                0.976          estimate D2E/DX2                !
 ! R18   R(11,59)                1.7937         estimate D2E/DX2                !
 ! R19   R(12,37)                1.7971         estimate D2E/DX2                !
 ! R20   R(13,32)                1.72           estimate D2E/DX2                !
 ! R21   R(13,36)                1.0565         estimate D2E/DX2                !
 ! R22   R(15,16)                1.5285         estimate D2E/DX2                !
 ! R23   R(15,17)                1.4978         estimate D2E/DX2                !
 ! R24   R(15,18)                1.4929         estimate D2E/DX2                !
 ! R25   R(15,19)                1.5187         estimate D2E/DX2                !
 ! R26   R(16,35)                1.6148         estimate D2E/DX2                !
 ! R27   R(16,43)                1.7208         estimate D2E/DX2                !
 ! R28   R(17,47)                1.6568         estimate D2E/DX2                !
 ! R29   R(18,27)                1.696          estimate D2E/DX2                !
 ! R30   R(19,39)                1.7301         estimate D2E/DX2                !
 ! R31   R(20,44)                1.0477         estimate D2E/DX2                !
 ! R32   R(21,22)                1.6464         estimate D2E/DX2                !
 ! R33   R(21,23)                1.4771         estimate D2E/DX2                !
 ! R34   R(21,24)                1.4735         estimate D2E/DX2                !
 ! R35   R(21,25)                1.4895         estimate D2E/DX2                !
 ! R36   R(22,26)                0.9761         estimate D2E/DX2                !
 ! R37   R(23,42)                1.8325         estimate D2E/DX2                !
 ! R38   R(24,46)                1.8675         estimate D2E/DX2                !
 ! R39   R(25,51)                1.9153         estimate D2E/DX2                !
 ! R40   R(25,55)                1.8611         estimate D2E/DX2                !
 ! R41   R(27,52)                1.0617         estimate D2E/DX2                !
 ! R42   R(28,40)                1.0403         estimate D2E/DX2                !
 ! R43   R(29,30)                1.4828         estimate D2E/DX2                !
 ! R44   R(29,31)                1.4827         estimate D2E/DX2                !
 ! R45   R(29,32)                1.4757         estimate D2E/DX2                !
 ! R46   R(29,33)                1.6467         estimate D2E/DX2                !
 ! R47   R(30,50)                1.7482         estimate D2E/DX2                !
 ! R48   R(31,41)                1.7719         estimate D2E/DX2                !
 ! R49   R(33,34)                0.976          estimate D2E/DX2                !
 ! R50   R(35,48)                1.0702         estimate D2E/DX2                !
 ! R51   R(36,37)                1.0432         estimate D2E/DX2                !
 ! R52   R(36,38)                1.0223         estimate D2E/DX2                !
 ! R53   R(36,39)                1.0584         estimate D2E/DX2                !
 ! R54   R(40,41)                1.0479         estimate D2E/DX2                !
 ! R55   R(40,42)                1.0394         estimate D2E/DX2                !
 ! R56   R(40,43)                1.0522         estimate D2E/DX2                !
 ! R57   R(44,45)                1.0359         estimate D2E/DX2                !
 ! R58   R(44,46)                1.036          estimate D2E/DX2                !
 ! R59   R(44,47)                1.0541         estimate D2E/DX2                !
 ! R60   R(48,49)                1.0215         estimate D2E/DX2                !
 ! R61   R(48,50)                1.0507         estimate D2E/DX2                !
 ! R62   R(48,51)                1.0402         estimate D2E/DX2                !
 ! R63   R(52,53)                1.0563         estimate D2E/DX2                !
 ! R64   R(52,54)                1.0221         estimate D2E/DX2                !
 ! R65   R(52,55)                1.0433         estimate D2E/DX2                !
 ! R66   R(56,57)                1.0221         estimate D2E/DX2                !
 ! R67   R(56,58)                1.0587         estimate D2E/DX2                !
 ! R68   R(56,59)                1.0417         estimate D2E/DX2                !
 ! A1    A(2,1,3)              101.7037         estimate D2E/DX2                !
 ! A2    A(2,1,4)              114.9044         estimate D2E/DX2                !
 ! A3    A(2,1,5)              114.614          estimate D2E/DX2                !
 ! A4    A(3,1,4)              105.684          estimate D2E/DX2                !
 ! A5    A(3,1,5)              106.0221         estimate D2E/DX2                !
 ! A6    A(4,1,5)              112.4385         estimate D2E/DX2                !
 ! A7    A(1,2,58)             118.3657         estimate D2E/DX2                !
 ! A8    A(1,3,7)              105.6796         estimate D2E/DX2                !
 ! A9    A(1,4,20)             113.4117         estimate D2E/DX2                !
 ! A10   A(1,5,53)             129.1186         estimate D2E/DX2                !
 ! A11   A(9,8,10)             105.7082         estimate D2E/DX2                !
 ! A12   A(9,8,11)             113.6126         estimate D2E/DX2                !
 ! A13   A(9,8,12)             111.5297         estimate D2E/DX2                !
 ! A14   A(10,8,11)            101.945          estimate D2E/DX2                !
 ! A15   A(10,8,12)            106.285          estimate D2E/DX2                !
 ! A16   A(11,8,12)            116.3978         estimate D2E/DX2                !
 ! A17   A(8,9,28)             110.0917         estimate D2E/DX2                !
 ! A18   A(8,9,45)             111.9063         estimate D2E/DX2                !
 ! A19   A(28,9,45)             98.7805         estimate D2E/DX2                !
 ! A20   A(8,10,14)            106.3439         estimate D2E/DX2                !
 ! A21   A(8,11,59)            144.5089         estimate D2E/DX2                !
 ! A22   A(8,12,37)            143.4304         estimate D2E/DX2                !
 ! A23   A(16,15,17)           109.7651         estimate D2E/DX2                !
 ! A24   A(16,15,18)           108.6823         estimate D2E/DX2                !
 ! A25   A(16,15,19)           107.0755         estimate D2E/DX2                !
 ! A26   A(17,15,18)           110.3128         estimate D2E/DX2                !
 ! A27   A(17,15,19)           109.0446         estimate D2E/DX2                !
 ! A28   A(18,15,19)           111.894          estimate D2E/DX2                !
 ! A29   A(15,16,35)           110.2139         estimate D2E/DX2                !
 ! A30   A(15,16,43)           130.0313         estimate D2E/DX2                !
 ! A31   A(35,16,43)           101.3639         estimate D2E/DX2                !
 ! A32   A(15,17,47)           140.6223         estimate D2E/DX2                !
 ! A33   A(15,18,27)           105.419          estimate D2E/DX2                !
 ! A34   A(6,19,15)            103.9677         estimate D2E/DX2                !
 ! A35   A(6,19,39)            121.6362         estimate D2E/DX2                !
 ! A36   A(15,19,39)           105.2524         estimate D2E/DX2                !
 ! A37   A(4,20,44)            158.555          estimate D2E/DX2                !
 ! A38   A(22,21,23)           106.2904         estimate D2E/DX2                !
 ! A39   A(22,21,24)           106.4906         estimate D2E/DX2                !
 ! A40   A(22,21,25)           101.002          estimate D2E/DX2                !
 ! A41   A(23,21,24)           114.6411         estimate D2E/DX2                !
 ! A42   A(23,21,25)           113.064          estimate D2E/DX2                !
 ! A43   A(24,21,25)           113.8437         estimate D2E/DX2                !
 ! A44   A(21,22,26)           106.147          estimate D2E/DX2                !
 ! A45   A(21,23,42)           128.8404         estimate D2E/DX2                !
 ! A46   A(21,24,46)           134.6551         estimate D2E/DX2                !
 ! A47   A(21,25,51)           110.8665         estimate D2E/DX2                !
 ! A48   A(21,25,55)           115.7582         estimate D2E/DX2                !
 ! A49   A(51,25,55)           116.3035         estimate D2E/DX2                !
 ! A50   A(9,28,40)            158.8113         estimate D2E/DX2                !
 ! A51   A(30,29,31)           112.8186         estimate D2E/DX2                !
 ! A52   A(30,29,32)           114.2697         estimate D2E/DX2                !
 ! A53   A(30,29,33)           106.1297         estimate D2E/DX2                !
 ! A54   A(31,29,32)           114.3009         estimate D2E/DX2                !
 ! A55   A(31,29,33)           105.942          estimate D2E/DX2                !
 ! A56   A(32,29,33)           102.0262         estimate D2E/DX2                !
 ! A57   A(29,30,50)           121.6238         estimate D2E/DX2                !
 ! A58   A(29,31,41)           112.6906         estimate D2E/DX2                !
 ! A59   A(13,32,29)           119.0669         estimate D2E/DX2                !
 ! A60   A(29,33,34)           105.9093         estimate D2E/DX2                !
 ! A61   A(13,36,37)           110.5456         estimate D2E/DX2                !
 ! A62   A(13,36,38)           109.8369         estimate D2E/DX2                !
 ! A63   A(13,36,39)           109.2333         estimate D2E/DX2                !
 ! A64   A(37,36,38)           109.6349         estimate D2E/DX2                !
 ! A65   A(37,36,39)           106.4592         estimate D2E/DX2                !
 ! A66   A(38,36,39)           111.0846         estimate D2E/DX2                !
 ! A67   A(28,40,41)           112.0159         estimate D2E/DX2                !
 ! A68   A(28,40,42)           111.9279         estimate D2E/DX2                !
 ! A69   A(28,40,43)           107.6236         estimate D2E/DX2                !
 ! A70   A(41,40,42)           111.7606         estimate D2E/DX2                !
 ! A71   A(41,40,43)           106.3847         estimate D2E/DX2                !
 ! A72   A(42,40,43)           106.7347         estimate D2E/DX2                !
 ! A73   A(31,41,40)           161.1721         estimate D2E/DX2                !
 ! A74   A(23,42,40)           159.1313         estimate D2E/DX2                !
 ! A75   A(20,44,45)           112.3674         estimate D2E/DX2                !
 ! A76   A(20,44,46)           112.4168         estimate D2E/DX2                !
 ! A77   A(20,44,47)           105.3691         estimate D2E/DX2                !
 ! A78   A(45,44,46)           112.0301         estimate D2E/DX2                !
 ! A79   A(45,44,47)           107.5204         estimate D2E/DX2                !
 ! A80   A(46,44,47)           106.6109         estimate D2E/DX2                !
 ! A81   A(9,45,44)            150.891          estimate D2E/DX2                !
 ! A82   A(24,46,44)           156.4471         estimate D2E/DX2                !
 ! A83   A(35,48,49)           109.8008         estimate D2E/DX2                !
 ! A84   A(35,48,50)           105.6696         estimate D2E/DX2                !
 ! A85   A(35,48,51)           106.4706         estimate D2E/DX2                !
 ! A86   A(49,48,50)           110.7795         estimate D2E/DX2                !
 ! A87   A(49,48,51)           110.5715         estimate D2E/DX2                !
 ! A88   A(50,48,51)           113.3059         estimate D2E/DX2                !
 ! A89   A(30,50,48)           161.4989         estimate D2E/DX2                !
 ! A90   A(25,51,48)           154.4723         estimate D2E/DX2                !
 ! A91   A(27,52,53)           109.8396         estimate D2E/DX2                !
 ! A92   A(27,52,54)           110.7647         estimate D2E/DX2                !
 ! A93   A(27,52,55)           106.1773         estimate D2E/DX2                !
 ! A94   A(53,52,54)           109.416          estimate D2E/DX2                !
 ! A95   A(53,52,55)           110.969          estimate D2E/DX2                !
 ! A96   A(54,52,55)           109.6414         estimate D2E/DX2                !
 ! A97   A(25,55,52)           160.0426         estimate D2E/DX2                !
 ! A98   A(6,56,57)            111.2636         estimate D2E/DX2                !
 ! A99   A(6,56,58)            109.0066         estimate D2E/DX2                !
 ! A100  A(6,56,59)            106.3204         estimate D2E/DX2                !
 ! A101  A(57,56,58)           110.0491         estimate D2E/DX2                !
 ! A102  A(57,56,59)           109.7948         estimate D2E/DX2                !
 ! A103  A(58,56,59)           110.3434         estimate D2E/DX2                !
 ! A104  L(19,6,56,5,-1)       174.3144         estimate D2E/DX2                !
 ! A105  L(32,13,36,5,-1)      181.437          estimate D2E/DX2                !
 ! A106  L(18,27,52,2,-1)      185.7351         estimate D2E/DX2                !
 ! A107  L(16,35,48,21,-1)     170.6151         estimate D2E/DX2                !
 ! A108  L(12,37,36,1,-1)      172.7453         estimate D2E/DX2                !
 ! A109  L(19,39,36,8,-1)      167.1669         estimate D2E/DX2                !
 ! A110  L(16,43,40,4,-1)      190.8464         estimate D2E/DX2                !
 ! A111  L(17,47,44,1,-1)      168.3133         estimate D2E/DX2                !
 ! A112  L(5,53,52,6,-1)       188.64           estimate D2E/DX2                !
 ! A113  L(2,58,56,15,-1)      179.7915         estimate D2E/DX2                !
 ! A114  L(11,59,56,4,-1)      187.3315         estimate D2E/DX2                !
 ! A115  L(19,6,56,5,-2)       193.7704         estimate D2E/DX2                !
 ! A116  L(32,13,36,5,-2)      175.0839         estimate D2E/DX2                !
 ! A117  L(18,27,52,2,-2)      167.8379         estimate D2E/DX2                !
 ! A118  L(16,35,48,21,-2)     168.9876         estimate D2E/DX2                !
 ! A119  L(12,37,36,1,-2)      183.235          estimate D2E/DX2                !
 ! A120  L(19,39,36,8,-2)      184.5916         estimate D2E/DX2                !
 ! A121  L(16,43,40,4,-2)      185.1054         estimate D2E/DX2                !
 ! A122  L(17,47,44,1,-2)      181.5257         estimate D2E/DX2                !
 ! A123  L(5,53,52,6,-2)       179.0961         estimate D2E/DX2                !
 ! A124  L(2,58,56,15,-2)      185.1547         estimate D2E/DX2                !
 ! A125  L(11,59,56,4,-2)      174.9339         estimate D2E/DX2                !
 ! D1    D(3,1,2,58)          -141.3747         estimate D2E/DX2                !
 ! D2    D(4,1,2,58)           -27.762          estimate D2E/DX2                !
 ! D3    D(5,1,2,58)           104.7375         estimate D2E/DX2                !
 ! D4    D(2,1,3,7)            170.3757         estimate D2E/DX2                !
 ! D5    D(4,1,3,7)             50.0547         estimate D2E/DX2                !
 ! D6    D(5,1,3,7)            -69.4903         estimate D2E/DX2                !
 ! D7    D(2,1,4,20)            98.7172         estimate D2E/DX2                !
 ! D8    D(3,1,4,20)          -150.0192         estimate D2E/DX2                !
 ! D9    D(5,1,4,20)           -34.7978         estimate D2E/DX2                !
 ! D10   D(2,1,5,53)           -27.5627         estimate D2E/DX2                !
 ! D11   D(3,1,5,53)          -138.8904         estimate D2E/DX2                !
 ! D12   D(4,1,5,53)           106.0929         estimate D2E/DX2                !
 ! D13   D(1,2,56,6)          -107.8844         estimate D2E/DX2                !
 ! D14   D(1,2,56,57)          131.6479         estimate D2E/DX2                !
 ! D15   D(1,2,56,59)            9.3811         estimate D2E/DX2                !
 ! D16   D(1,4,20,44)          -49.5344         estimate D2E/DX2                !
 ! D17   D(1,5,52,27)           -1.9611         estimate D2E/DX2                !
 ! D18   D(1,5,52,54)          120.3493         estimate D2E/DX2                !
 ! D19   D(1,5,52,55)         -121.6058         estimate D2E/DX2                !
 ! D20   D(8,11,56,6)            5.1033         estimate D2E/DX2                !
 ! D21   D(8,11,56,57)         122.969          estimate D2E/DX2                !
 ! D22   D(8,11,56,58)        -112.035          estimate D2E/DX2                !
 ! D23   D(8,12,36,13)         111.636          estimate D2E/DX2                !
 ! D24   D(8,12,36,38)        -123.8237         estimate D2E/DX2                !
 ! D25   D(8,12,36,39)          -5.6568         estimate D2E/DX2                !
 ! D26   D(15,16,40,28)         33.9093         estimate D2E/DX2                !
 ! D27   D(15,16,40,41)        154.7215         estimate D2E/DX2                !
 ! D28   D(15,16,40,42)        -89.0816         estimate D2E/DX2                !
 ! D29   D(35,16,40,28)        161.9859         estimate D2E/DX2                !
 ! D30   D(35,16,40,41)        -77.2019         estimate D2E/DX2                !
 ! D31   D(35,16,40,42)         38.995          estimate D2E/DX2                !
 ! D32   D(15,16,48,49)        -49.9959         estimate D2E/DX2                !
 ! D33   D(15,16,48,50)       -170.6726         estimate D2E/DX2                !
 ! D34   D(15,16,48,51)         72.2456         estimate D2E/DX2                !
 ! D35   D(43,16,48,49)        170.9816         estimate D2E/DX2                !
 ! D36   D(43,16,48,50)         50.3048         estimate D2E/DX2                !
 ! D37   D(43,16,48,51)        -66.777          estimate D2E/DX2                !
 ! D38   D(15,17,44,20)       -170.7836         estimate D2E/DX2                !
 ! D39   D(15,17,44,45)        -51.8729         estimate D2E/DX2                !
 ! D40   D(15,17,44,46)         72.3207         estimate D2E/DX2                !
 ! D41   D(15,18,52,53)        -40.7842         estimate D2E/DX2                !
 ! D42   D(15,18,52,54)       -167.4384         estimate D2E/DX2                !
 ! D43   D(15,18,52,55)         75.7688         estimate D2E/DX2                !
 ! D44   D(6,19,36,13)        -154.4343         estimate D2E/DX2                !
 ! D45   D(6,19,36,37)         -38.7043         estimate D2E/DX2                !
 ! D46   D(6,19,36,38)          78.6776         estimate D2E/DX2                !
 ! D47   D(15,19,36,13)        -40.5836         estimate D2E/DX2                !
 ! D48   D(15,19,36,37)         75.1463         estimate D2E/DX2                !
 ! D49   D(15,19,36,38)       -167.4718         estimate D2E/DX2                !
 ! D50   D(15,19,56,57)        167.3366         estimate D2E/DX2                !
 ! D51   D(15,19,56,58)         40.3499         estimate D2E/DX2                !
 ! D52   D(15,19,56,59)        -74.6048         estimate D2E/DX2                !
 ! D53   D(39,19,56,57)        -78.3597         estimate D2E/DX2                !
 ! D54   D(39,19,56,58)        154.6536         estimate D2E/DX2                !
 ! D55   D(39,19,56,59)         39.6989         estimate D2E/DX2                !
 ! D56   D(10,8,9,28)          129.9613         estimate D2E/DX2                !
 ! D57   D(10,8,9,45)         -121.2377         estimate D2E/DX2                !
 ! D58   D(11,8,9,28)         -119.0861         estimate D2E/DX2                !
 ! D59   D(11,8,9,45)          -10.2852         estimate D2E/DX2                !
 ! D60   D(12,8,9,28)           14.8679         estimate D2E/DX2                !
 ! D61   D(12,8,9,45)          123.6689         estimate D2E/DX2                !
 ! D62   D(9,8,10,14)          -58.8731         estimate D2E/DX2                !
 ! D63   D(11,8,10,14)        -177.8723         estimate D2E/DX2                !
 ! D64   D(12,8,10,14)          59.7676         estimate D2E/DX2                !
 ! D65   D(9,8,11,59)           94.3077         estimate D2E/DX2                !
 ! D66   D(10,8,11,59)        -152.4576         estimate D2E/DX2                !
 ! D67   D(12,8,11,59)         -37.3074         estimate D2E/DX2                !
 ! D68   D(9,8,12,37)          -95.1178         estimate D2E/DX2                !
 ! D69   D(10,8,12,37)         150.1448         estimate D2E/DX2                !
 ! D70   D(11,8,12,37)          37.4558         estimate D2E/DX2                !
 ! D71   D(8,9,28,40)           68.853          estimate D2E/DX2                !
 ! D72   D(45,9,28,40)         -48.4358         estimate D2E/DX2                !
 ! D73   D(8,9,45,44)          -72.9585         estimate D2E/DX2                !
 ! D74   D(28,9,45,44)          42.9389         estimate D2E/DX2                !
 ! D75   D(29,32,36,37)          2.4361         estimate D2E/DX2                !
 ! D76   D(29,32,36,38)       -119.3441         estimate D2E/DX2                !
 ! D77   D(29,32,36,39)        120.3335         estimate D2E/DX2                !
 ! D78   D(17,15,16,35)       -111.5477         estimate D2E/DX2                !
 ! D79   D(17,15,16,43)         14.1512         estimate D2E/DX2                !
 ! D80   D(18,15,16,35)          9.1759         estimate D2E/DX2                !
 ! D81   D(18,15,16,43)        134.8749         estimate D2E/DX2                !
 ! D82   D(19,15,16,35)        130.2168         estimate D2E/DX2                !
 ! D83   D(19,15,16,43)       -104.0843         estimate D2E/DX2                !
 ! D84   D(16,15,17,47)         -5.0298         estimate D2E/DX2                !
 ! D85   D(18,15,17,47)       -124.7626         estimate D2E/DX2                !
 ! D86   D(19,15,17,47)        111.9786         estimate D2E/DX2                !
 ! D87   D(16,15,18,27)       -108.8218         estimate D2E/DX2                !
 ! D88   D(17,15,18,27)         11.5634         estimate D2E/DX2                !
 ! D89   D(19,15,18,27)        133.1474         estimate D2E/DX2                !
 ! D90   D(16,15,19,6)         129.3802         estimate D2E/DX2                !
 ! D91   D(16,15,19,39)          0.4729         estimate D2E/DX2                !
 ! D92   D(17,15,19,6)          10.6767         estimate D2E/DX2                !
 ! D93   D(17,15,19,39)       -118.2306         estimate D2E/DX2                !
 ! D94   D(18,15,19,6)        -111.6346         estimate D2E/DX2                !
 ! D95   D(18,15,19,39)        119.4581         estimate D2E/DX2                !
 ! D96   D(4,20,44,45)        -110.1823         estimate D2E/DX2                !
 ! D97   D(4,20,44,46)         122.3353         estimate D2E/DX2                !
 ! D98   D(4,20,44,47)           6.6076         estimate D2E/DX2                !
 ! D99   D(23,21,22,26)        -61.7941         estimate D2E/DX2                !
 ! D100  D(24,21,22,26)         60.8568         estimate D2E/DX2                !
 ! D101  D(25,21,22,26)       -179.9975         estimate D2E/DX2                !
 ! D102  D(22,21,23,42)        165.5441         estimate D2E/DX2                !
 ! D103  D(24,21,23,42)         48.195          estimate D2E/DX2                !
 ! D104  D(25,21,23,42)        -84.5466         estimate D2E/DX2                !
 ! D105  D(22,21,24,46)       -166.9854         estimate D2E/DX2                !
 ! D106  D(23,21,24,46)        -49.7505         estimate D2E/DX2                !
 ! D107  D(25,21,24,46)         82.6228         estimate D2E/DX2                !
 ! D108  D(22,21,25,51)        110.5054         estimate D2E/DX2                !
 ! D109  D(22,21,25,55)       -114.2204         estimate D2E/DX2                !
 ! D110  D(23,21,25,51)         -2.6586         estimate D2E/DX2                !
 ! D111  D(23,21,25,55)        132.6156         estimate D2E/DX2                !
 ! D112  D(24,21,25,51)       -135.7862         estimate D2E/DX2                !
 ! D113  D(24,21,25,55)         -0.512          estimate D2E/DX2                !
 ! D114  D(21,23,42,40)         49.3097         estimate D2E/DX2                !
 ! D115  D(21,24,46,44)        -39.2435         estimate D2E/DX2                !
 ! D116  D(21,25,51,48)        103.4724         estimate D2E/DX2                !
 ! D117  D(55,25,51,48)        -31.5367         estimate D2E/DX2                !
 ! D118  D(21,25,55,52)       -134.7753         estimate D2E/DX2                !
 ! D119  D(51,25,55,52)         -1.9567         estimate D2E/DX2                !
 ! D120  D(9,28,40,41)        -134.1386         estimate D2E/DX2                !
 ! D121  D(9,28,40,42)          99.4307         estimate D2E/DX2                !
 ! D122  D(9,28,40,43)         -17.5419         estimate D2E/DX2                !
 ! D123  D(31,29,30,50)       -103.7354         estimate D2E/DX2                !
 ! D124  D(32,29,30,50)         29.0661         estimate D2E/DX2                !
 ! D125  D(33,29,30,50)        140.678          estimate D2E/DX2                !
 ! D126  D(30,29,31,41)         47.1035         estimate D2E/DX2                !
 ! D127  D(32,29,31,41)        -85.6828         estimate D2E/DX2                !
 ! D128  D(33,29,31,41)        162.8024         estimate D2E/DX2                !
 ! D129  D(30,29,32,13)       -118.9731         estimate D2E/DX2                !
 ! D130  D(31,29,32,13)         13.1217         estimate D2E/DX2                !
 ! D131  D(33,29,32,13)        126.9703         estimate D2E/DX2                !
 ! D132  D(30,29,33,34)         60.8322         estimate D2E/DX2                !
 ! D133  D(31,29,33,34)        -59.331          estimate D2E/DX2                !
 ! D134  D(32,29,33,34)       -179.2282         estimate D2E/DX2                !
 ! D135  D(29,30,50,48)         15.1895         estimate D2E/DX2                !
 ! D136  D(29,31,41,40)         46.4634         estimate D2E/DX2                !
 ! D137  D(28,40,41,31)        116.4852         estimate D2E/DX2                !
 ! D138  D(42,40,41,31)       -116.9933         estimate D2E/DX2                !
 ! D139  D(43,40,41,31)         -0.856          estimate D2E/DX2                !
 ! D140  D(28,40,42,23)       -121.1177         estimate D2E/DX2                !
 ! D141  D(41,40,42,23)        112.313          estimate D2E/DX2                !
 ! D142  D(43,40,42,23)         -3.6113         estimate D2E/DX2                !
 ! D143  D(20,44,45,9)         135.2324         estimate D2E/DX2                !
 ! D144  D(46,44,45,9)         -97.0799         estimate D2E/DX2                !
 ! D145  D(47,44,45,9)          19.7363         estimate D2E/DX2                !
 ! D146  D(20,44,46,24)       -117.1293         estimate D2E/DX2                !
 ! D147  D(45,44,46,24)        115.2094         estimate D2E/DX2                !
 ! D148  D(47,44,46,24)         -2.1526         estimate D2E/DX2                !
 ! D149  D(35,48,50,30)          6.3441         estimate D2E/DX2                !
 ! D150  D(49,48,50,30)       -112.5209         estimate D2E/DX2                !
 ! D151  D(51,48,50,30)        122.542          estimate D2E/DX2                !
 ! D152  D(35,48,51,25)        -17.7618         estimate D2E/DX2                !
 ! D153  D(49,48,51,25)        101.4649         estimate D2E/DX2                !
 ! D154  D(50,48,51,25)       -133.4858         estimate D2E/DX2                !
 ! D155  D(27,52,55,25)         15.7938         estimate D2E/DX2                !
 ! D156  D(53,52,55,25)        135.1096         estimate D2E/DX2                !
 ! D157  D(54,52,55,25)       -103.9082         estimate D2E/DX2                !
 --------------------------------------------------------------------------------
 Trust Radius=3.00D-01 FncErr=1.00D-07 GrdErr=1.00D-06
 Number of steps in this run=    354 maximum allowed number of steps=    354.
 GradGradGradGradGradGradGradGradGradGradGradGradGradGradGradGradGradGrad

 Stoichiometry    H28N6O20S5
 Framework group  C1[X(H28N6O20S5)]
 Deg. of freedom   171
 Full point group                 C1      NOp   1
 Largest Abelian subgroup         C1      NOp   1
 Largest concise Abelian subgroup C1      NOp   1
                         Standard orientation:                         
 ---------------------------------------------------------------------
 Center     Atomic      Atomic             Coordinates (Angstroms)
 Number     Number       Type             X           Y           Z
 ---------------------------------------------------------------------
      1         16           0       -4.771468    0.027913   -0.393396
      2          8           0       -4.429597   -0.714181   -1.619661
      3          8           0       -6.411562    0.141467   -0.517481
      4          8           0       -4.514809   -0.703046    0.870762
      5          8           0       -4.266414    1.421928   -0.353871
      6          1           0       -1.615801   -2.222672   -2.099750
      7          1           0       -6.717741    0.487188    0.342060
      8         16           0       -0.018774   -3.123761    1.660816
      9          8           0        0.015873   -1.951389    2.589808
     10          8           0       -0.063023   -4.454484    2.624995
     11          8           0       -1.275543   -3.246296    0.916831
     12          8           0        1.225685   -3.226132    0.869994
     13          1           0        3.023073   -1.777053   -1.627978
     14          1           0        0.738924   -4.418189    3.180184
     15         16           0       -0.159014   -0.110830   -1.846839
     16          8           0        1.166067    0.043103   -1.100615
     17          8           0       -1.293572   -0.114098   -0.869003
     18          8           0       -0.303388    1.025398   -2.804387
     19          8           0       -0.115922   -1.450759   -2.560381
     20          1           0       -2.987375   -0.250948    1.648050
     21         16           0        0.101925    3.283722    1.498224
     22          8           0        0.140480    4.813027    2.106833
     23          8           0        1.356623    2.634378    1.929517
     24          8           0       -1.125180    2.656723    2.019997
     25          8           0        0.061268    3.560912    0.035283
     26          1           0        0.168679    4.718112    3.077869
     27          1           0       -1.524996    2.008007   -2.157287
     28          1           0        1.382150   -0.805745    2.114088
     29         16           0        4.822620   -0.049950   -0.452902
     30          8           0        4.627071    1.406971   -0.258256
     31          8           0        4.480055   -0.842221    0.752638
     32          8           0        4.251870   -0.576222   -1.707834
     33          8           0        6.437269   -0.266783   -0.692864
     34          1           0        6.873923    0.055034    0.118525
     35          1           0        1.824310    1.481935   -1.423366
     36          7           0        2.276382   -2.523483   -1.666550
     37          1           0        1.975477   -2.790413   -0.704012
     38          1           0        2.634006   -3.346971   -2.155412
     39          1           0        1.419691   -2.134910   -2.151616
     40          7           0        1.914326   -0.112059    1.550308
     41          1           0        2.925656   -0.371400    1.461021
     42          1           0        1.795012    0.855163    1.911562
     43          1           0        1.518073   -0.122466    0.575626
     44          7           0       -1.963463   -0.050439    1.742980
     45          1           0       -1.471929   -0.767456    2.306349
     46          1           0       -1.779069    0.908786    2.088357
     47          1           0       -1.577583   -0.097299    0.763154
     48          7           0        2.315202    2.431760   -1.375691
     49          1           0        2.426376    2.811493   -2.317492
     50          1           0        3.251081    2.245749   -0.935912
     51          1           0        1.706411    3.049902   -0.801880
     52          7           0       -2.131364    2.646682   -1.564399
     53          1           0       -2.909055    2.089070   -1.117161
     54          1           0       -2.533328    3.395043   -2.132789
     55          1           0       -1.501371    3.055947   -0.840458
     56          7           0       -2.445507   -2.616476   -1.579022
     57          1           0       -2.798518   -3.462993   -2.030133
     58          1           0       -3.207155   -1.882315   -1.538347
     59          1           0       -2.108602   -2.842338   -0.619507
 ---------------------------------------------------------------------
 Rotational constants (GHZ):      0.1191133      0.0737909      0.0610209
 Standard basis: 6-311++G(3df,3pd) (5D, 7F)
 There are  1967 symmetry adapted cartesian basis functions of A   symmetry.
 There are  1753 symmetry adapted basis functions of A   symmetry.
  1753 basis functions,  2456 primitive gaussians,  1967 cartesian basis functions
   155 alpha electrons      155 beta electrons
       nuclear repulsion energy      5670.6610634352 Hartrees.
 NAtoms=   59 NActive=   59 NUniq=   59 SFac= 1.00D+00 NAtFMM=   60 NAOKFM=F Big=F
 Integral buffers will be    131072 words long.
 Raffenetti 2 integral format.
 Two-electron integral symmetry is turned on.
 Standard density basis: Auto (5D, 7F)
  7769 Density fitting functions
 There are  7769 symmetry adapted density basis functions of A   symmetry.
 One-electron integrals computed using PRISM.
 NBasis=  1753 RedAO= T EigKep=  4.58D-06  NBF=  1753
 NBsUse=  1753 1.00D-06 EigRej= -1.00D+00 NBFU=  1753
 NBasis=     1753 NBas6D=     1967 NTT=     1537381   NTT6D=  1935528
 NDBShl=     1091 NDBF=       7769 NDBF6D=    10115  NNucDB=        0
 IDenFi=        2 ISolve=        0 FullAP=F BlkAPC=T NucTyp=        0
 TolInv= 1.00D-06 TolIt=  1.00D-10 IR12=0.
 FoFCou: FMM=F IPFlag=           0 FMFlag=           0 FMFlg1=           0
         NFxFlg=           0 DoJE=F BraDBF=T KetDBF=T FulRan=T
         wScrn=  0.000000 ICntrl=     600 IOpCl=  3 I1Cent=           6 NGrid=           0
         NMat0=    1 NMatS0=  10115 NMatT0=    0 NMatD0=    1 NMtDS0=    0 NMtDT0=    0
 Petite list used in FoFCou.
 DBF EigKep=  1.01D-06 EigRej=  9.98D-07
 NDBF=   7769  NBFD=  7769
 NRank=  7209 NBFDU=  7209
 S*AI*S=  17.1396768614    
 ExpMin= 3.60D-02 ExpMax= 9.34D+04 ExpMxC= 3.17D+03 IAcc=3 IRadAn=         5 AccDes= 0.00D+00
 Harris functional with IExCor=  608 and IRadAn=       5 diagonalized for initial guess.
 HarFok:  IExCor=  608 AccDes= 0.00D+00 IRadAn=         5 IDoV= 1 UseB2=F ITyADJ=14
 ICtDFT=  3500011 ScaDFX=  1.000000  1.000000  1.000000  1.000000
 FoFCou: FMM=F IPFlag=           0 FMFlag=      100000 FMFlg1=           0
         NFxFlg=           0 DoJE=T BraDBF=F KetDBF=T FulRan=T
         wScrn=  0.000000 ICntrl=     500 IOpCl=  0 I1Cent=   200000004 NGrid=           0
         NMat0=    1 NMatS0=      1 NMatT0=    0 NMatD0=    1 NMtDS0=    0 NMtDT0=    0
 Petite list used in FoFCou.
 Requested convergence on RMS density matrix=1.00D-08 within 128 cycles.
 Requested convergence on MAX density matrix=1.00D-06.
 Requested convergence on             energy=1.00D-06.
 No special actions if energy rises.
 FoFCou: FMM=F IPFlag=           0 FMFlag=      100000 FMFlg1=           0
         NFxFlg=           0 DoJE=T BraDBF=T KetDBF=F FulRan=T
         wScrn=  0.000000 ICntrl=     500 IOpCl=  0 I1Cent=           5 NGrid=           0
         NMat0=    1 NMatS0=      1 NMatT0=    0 NMatD0=    1 NMtDS0=    0 NMtDT0=    0
 Symmetry not used in FoFCou.
 Initial convergence to 1.0D-05 achieved.  Increase integral accuracy.
 SCF Done:  E(RPW91-PW91) =  -3841.41874959     A.U. after   16 cycles
            NFock= 16  Conv=0.33D-08     -V/T= 2.0023

 **********************************************************************

            Population analysis using the SCF density.

 **********************************************************************

 Orbital symmetries:
       Occupied  (A) (A) (A) (A) (A) (A) (A) (A) (A) (A) (A) (A)
                 (A) (A) (A) (A) (A) (A) (A) (A) (A) (A) (A) (A)
                 (A) (A) (A) (A) (A) (A) (A) (A) (A) (A) (A) (A)
                 (A) (A) (A) (A) (A) (A) (A) (A) (A) (A) (A) (A)
                 (A) (A) (A) (A) (A) (A) (A) (A) (A) (A) (A) (A)
                 (A) (A) (A) (A) (A) (A) (A) (A) (A) (A) (A) (A)
                 (A) (A) (A) (A) (A) (A) (A) (A) (A) (A) (A) (A)
                 (A) (A) (A) (A) (A) (A) (A) (A) (A) (A) (A) (A)
                 (A) (A) (A) (A) (A) (A) (A) (A) (A) (A) (A) (A)
                 (A) (A) (A) (A) (A) (A) (A) (A) (A) (A) (A) (A)
                 (A) (A) (A) (A) (A) (A) (A) (A) (A) (A) (A) (A)
                 (A) (A) (A) (A) (A) (A) (A) (A) (A) (A) (A) (A)
                 (A) (A) (A) (A) (A) (A) (A) (A) (A) (A) (A)
       Virtual   (A) (A) (A) (A) (A) (A) (A) (A) (A) (A) (A) (A)
                 (A) (A) (A) (A) (A) (A) (A) (A) (A) (A) (A) (A)
                 (A) (A) (A) (A) (A) (A) (A) (A) (A) (A) (A) (A)
                 (A) (A) (A) (A) (A) (A) (A) (A) (A) (A) (A) (A)
                 (A) (A) (A) (A) (A) (A) (A) (A) (A) (A) (A) (A)
                 (A) (A) (A) (A) (A) (A) (A) (A) (A) (A) (A) (A)
                 (A) (A) (A) (A) (A) (A) (A) (A) (A) (A) (A) (A)
                 (A) (A) (A) (A) (A) (A) (A) (A) (A) (A) (A) (A)
                 (A) (A) (A) (A) (A) (A) (A) (A) (A) (A) (A) (A)
                 (A) (A) (A) (A) (A) (A) (A) (A) (A) (A) (A) (A)
                 (A) (A) (A) (A) (A) (A) (A) (A) (A) (A) (A) (A)
                 (A) (A) (A) (A) (A) (A) (A) (A) (A) (A) (A) (A)
                 (A) (A) (A) (A) (A) (A) (A) (A) (A) (A) (A) (A)
                 (A) (A) (A) (A) (A) (A) (A) (A) (A) (A) (A) (A)
                 (A) (A) (A) (A) (A) (A) (A) (A) (A) (A) (A) (A)
                 (A) (A) (A) (A) (A) (A) (A) (A) (A) (A) (A) (A)
                 (A) (A) (A) (A) (A) (A) (A) (A) (A) (A) (A) (A)
                 (A) (A) (A) (A) (A) (A) (A) (A) (A) (A) (A) (A)
                 (A) (A) (A) (A) (A) (A) (A) (A) (A) (A) (A) (A)
                 (A) (A) (A) (A) (A) (A) (A) (A) (A) (A) (A) (A)
                 (A) (A) (A) (A) (A) (A) (A) (A) (A) (A) (A) (A)
                 (A) (A) (A) (A) (A) (A) (A) (A) (A) (A) (A) (A)
                 (A) (A) (A) (A) (A) (A) (A) (A) (A) (A) (A) (A)
                 (A) (A) (A) (A) (A) (A) (A) (A) (A) (A) (A) (A)
                 (A) (A) (A) (A) (A) (A) (A) (A) (A) (A) (A) (A)
                 (A) (A) (A) (A) (A) (A) (A) (A) (A) (A) (A) (A)
                 (A) (A) (A) (A) (A) (A) (A) (A) (A) (A) (A) (A)
                 (A) (A) (A) (A) (A) (A) (A) (A) (A) (A) (A) (A)
                 (A) (A) (A) (A) (A) (A) (A) (A) (A) (A) (A) (A)
                 (A) (A) (A) (A) (A) (A) (A) (A) (A) (A) (A) (A)
                 (A) (A) (A) (A) (A) (A) (A) (A) (A) (A) (A) (A)
                 (A) (A) (A) (A) (A) (A) (A) (A) (A) (A) (A) (A)
                 (A) (A) (A) (A) (A) (A) (A) (A) (A) (A) (A) (A)
                 (A) (A) (A) (A) (A) (A) (A) (A) (A) (A) (A) (A)
                 (A) (A) (A) (A) (A) (A) (A) (A) (A) (A) (A) (A)
                 (A) (A) (A) (A) (A) (A) (A) (A) (A) (A) (A) (A)
                 (A) (A) (A) (A) (A) (A) (A) (A) (A) (A) (A) (A)
                 (A) (A) (A) (A) (A) (A) (A) (A) (A) (A) (A) (A)
                 (A) (A) (A) (A) (A) (A) (A) (A) (A) (A) (A) (A)
                 (A) (A) (A) (A) (A) (A) (A) (A) (A) (A) (A) (A)
                 (A) (A) (A) (A) (A) (A) (A) (A) (A) (A) (A) (A)
                 (A) (A) (A) (A) (A) (A) (A) (A) (A) (A) (A) (A)
                 (A) (A) (A) (A) (A) (A) (A) (A) (A) (A) (A) (A)
                 (A) (A) (A) (A) (A) (A) (A) (A) (A) (A) (A) (A)
                 (A) (A) (A) (A) (A) (A) (A) (A) (A) (A) (A) (A)
                 (A) (A) (A) (A) (A) (A) (A) (A) (A) (A) (A) (A)
                 (A) (A) (A) (A) (A) (A) (A) (A) (A) (A) (A) (A)
                 (A) (A) (A) (A) (A) (A) (A) (A) (A) (A) (A) (A)
                 (A) (A) (A) (A) (A) (A) (A) (A) (A) (A) (A) (A)
                 (A) (A) (A) (A) (A) (A) (A) (A) (A) (A) (A) (A)
                 (A) (A) (A) (A) (A) (A) (A) (A) (A) (A) (A) (A)
                 (A) (A) (A) (A) (A) (A) (A) (A) (A) (A) (A) (A)
                 (A) (A) (A) (A) (A) (A) (A) (A) (A) (A) (A) (A)
                 (A) (A) (A) (A) (A) (A) (A) (A) (A) (A) (A) (A)
                 (A) (A) (A) (A) (A) (A) (A) (A) (A) (A) (A) (A)
                 (A) (A) (A) (A) (A) (A) (A) (A) (A) (A) (A) (A)
                 (A) (A) (A) (A) (A) (A) (A) (A) (A) (A) (A) (A)
                 (A) (A) (A) (A) (A) (A) (A) (A) (A) (A) (A) (A)
                 (A) (A) (A) (A) (A) (A) (A) (A) (A) (A) (A) (A)
                 (A) (A) (A) (A) (A) (A) (A) (A) (A) (A) (A) (A)
                 (A) (A) (A) (A) (A) (A) (A) (A) (A) (A) (A) (A)
                 (A) (A) (A) (A) (A) (A) (A) (A) (A) (A) (A) (A)
                 (A) (A) (A) (A) (A) (A) (A) (A) (A) (A) (A) (A)
                 (A) (A) (A) (A) (A) (A) (A) (A) (A) (A) (A) (A)
                 (A) (A) (A) (A) (A) (A) (A) (A) (A) (A) (A) (A)
                 (A) (A) (A) (A) (A) (A) (A) (A) (A) (A) (A) (A)
                 (A) (A) (A) (A) (A) (A) (A) (A) (A) (A) (A) (A)
                 (A) (A) (A) (A) (A) (A) (A) (A) (A) (A) (A) (A)
                 (A) (A) (A) (A) (A) (A) (A) (A) (A) (A) (A) (A)
                 (A) (A) (A) (A) (A) (A) (A) (A) (A) (A) (A) (A)
                 (A) (A) (A) (A) (A) (A) (A) (A) (A) (A) (A) (A)
                 (A) (A) (A) (A) (A) (A) (A) (A) (A) (A) (A) (A)
                 (A) (A) (A) (A) (A) (A) (A) (A) (A) (A) (A) (A)
                 (A) (A) (A) (A) (A) (A) (A) (A) (A) (A) (A) (A)
                 (A) (A) (A) (A) (A) (A) (A) (A) (A) (A) (A) (A)
                 (A) (A) (A) (A) (A) (A) (A) (A) (A) (A) (A) (A)
                 (A) (A) (A) (A) (A) (A) (A) (A) (A) (A) (A) (A)
                 (A) (A) (A) (A) (A) (A) (A) (A) (A) (A) (A) (A)
                 (A) (A) (A) (A) (A) (A) (A) (A) (A) (A) (A) (A)
                 (A) (A) (A) (A) (A) (A) (A) (A) (A) (A) (A) (A)
                 (A) (A) (A) (A) (A) (A) (A) (A) (A) (A) (A) (A)
                 (A) (A) (A) (A) (A) (A) (A) (A) (A) (A) (A) (A)
                 (A) (A) (A) (A) (A) (A) (A) (A) (A) (A) (A) (A)
                 (A) (A) (A) (A) (A) (A) (A) (A) (A) (A) (A) (A)
                 (A) (A) (A) (A) (A) (A) (A) (A) (A) (A) (A) (A)
                 (A) (A) (A) (A) (A) (A) (A) (A) (A) (A) (A) (A)
                 (A) (A) (A) (A) (A) (A) (A) (A) (A) (A) (A) (A)
                 (A) (A) (A) (A) (A) (A) (A) (A) (A) (A) (A) (A)
                 (A) (A) (A) (A) (A) (A) (A) (A) (A) (A) (A) (A)
                 (A) (A) (A) (A) (A) (A) (A) (A) (A) (A) (A) (A)
                 (A) (A) (A) (A) (A) (A) (A) (A) (A) (A) (A) (A)
                 (A) (A) (A) (A) (A) (A) (A) (A) (A) (A) (A) (A)
                 (A) (A) (A) (A) (A) (A) (A) (A) (A) (A) (A) (A)
                 (A) (A) (A) (A) (A) (A) (A) (A) (A) (A) (A) (A)
                 (A) (A) (A) (A) (A) (A) (A) (A) (A) (A) (A) (A)
                 (A) (A) (A) (A) (A) (A) (A) (A) (A) (A) (A) (A)
                 (A) (A) (A) (A) (A) (A) (A) (A) (A) (A) (A) (A)
                 (A) (A) (A) (A) (A) (A) (A) (A) (A) (A) (A) (A)
                 (A) (A) (A) (A) (A) (A) (A) (A) (A) (A) (A) (A)
                 (A) (A) (A) (A) (A) (A) (A) (A) (A) (A) (A) (A)
                 (A) (A) (A) (A) (A) (A) (A) (A) (A) (A) (A) (A)
                 (A) (A) (A) (A) (A) (A) (A) (A) (A) (A) (A) (A)
                 (A) (A) (A) (A) (A) (A) (A) (A) (A) (A) (A) (A)
                 (A) (A) (A) (A) (A) (A) (A) (A) (A) (A) (A) (A)
                 (A) (A) (A) (A) (A) (A) (A) (A) (A) (A) (A) (A)
                 (A) (A) (A) (A) (A) (A) (A) (A) (A) (A) (A) (A)
                 (A) (A) (A) (A) (A) (A) (A) (A) (A) (A) (A) (A)
                 (A) (A) (A) (A) (A) (A) (A) (A) (A) (A) (A) (A)
                 (A) (A) (A) (A) (A) (A) (A) (A) (A) (A) (A) (A)
                 (A) (A) (A) (A) (A) (A) (A) (A) (A) (A) (A) (A)
                 (A) (A) (A) (A) (A) (A) (A) (A) (A) (A) (A) (A)
                 (A) (A) (A) (A) (A) (A) (A) (A) (A) (A) (A) (A)
                 (A) (A) (A) (A) (A) (A) (A) (A) (A) (A) (A) (A)
                 (A) (A) (A) (A) (A) (A) (A) (A) (A) (A) (A) (A)
                 (A) (A) (A) (A) (A) (A) (A) (A) (A) (A) (A) (A)
                 (A) (A) (A) (A) (A) (A) (A) (A) (A) (A) (A) (A)
                 (A) (A) (A) (A) (A) (A) (A) (A) (A) (A) (A) (A)
                 (A) (A) (A) (A) (A) (A) (A) (A) (A) (A) (A) (A)
                 (A) (A) (A) (A) (A) (A) (A) (A) (A) (A) (A) (A)
                 (A) (A) (A) (A) (A) (A) (A) (A) (A) (A) (A) (A)
                 (A) (A) (A) (A) (A) (A) (A) (A) (A) (A) (A) (A)
                 (A) (A) (A) (A) (A) (A) (A) (A) (A) (A) (A) (A)
                 (A) (A) (A) (A) (A) (A) (A) (A) (A) (A) (A) (A)
                 (A) (A) (A) (A) (A) (A) (A) (A) (A) (A) (A) (A)
                 (A) (A) (A) (A) (A) (A) (A) (A) (A) (A) (A) (A)
                 (A) (A) (A) (A) (A) (A) (A) (A) (A) (A) (A) (A)
                 (A) (A) (A) (A) (A) (A) (A) (A) (A) (A) (A) (A)
                 (A) (A) (A) (A) (A) (A) (A) (A) (A) (A) (A) (A)
                 (A) (A) (A) (A) (A) (A) (A) (A) (A) (A) (A) (A)
                 (A) (A) (A) (A) (A) (A) (A) (A) (A) (A) (A) (A)
                 (A) (A) (A) (A) (A) (A) (A) (A) (A) (A) (A) (A)
                 (A) (A) (A) (A) (A) (A) (A) (A) (A) (A) (A) (A)
                 (A) (A) (A) (A) (A) (A) (A) (A) (A) (A) (A) (A)
                 (A) (A)
 The electronic state is 1-A.
 Alpha  occ. eigenvalues --  -88.29142 -88.28889 -88.27937 -88.27597 -88.27028
 Alpha  occ. eigenvalues --  -18.81010 -18.80863 -18.80102 -18.79642 -18.76812
 Alpha  occ. eigenvalues --  -18.76654 -18.76459 -18.76452 -18.76186 -18.76151
 Alpha  occ. eigenvalues --  -18.75559 -18.75406 -18.75301 -18.75157 -18.75098
 Alpha  occ. eigenvalues --  -18.75097 -18.75060 -18.74956 -18.74347 -18.74263
 Alpha  occ. eigenvalues --  -14.07369 -14.07068 -14.07024 -14.06842 -14.05625
 Alpha  occ. eigenvalues --  -14.05425  -7.85978  -7.85749  -7.84811  -7.84464
 Alpha  occ. eigenvalues --   -7.83809  -5.88649  -5.88421  -5.88410  -5.88404
 Alpha  occ. eigenvalues --   -5.88190  -5.88159  -5.87489  -5.87238  -5.87224
 Alpha  occ. eigenvalues --   -5.87143  -5.86889  -5.86881  -5.86370  -5.86322
 Alpha  occ. eigenvalues --   -5.86281  -1.07019  -1.06834  -1.05941  -1.05553
 Alpha  occ. eigenvalues --   -1.04734  -0.95194  -0.95029  -0.94266  -0.93803
 Alpha  occ. eigenvalues --   -0.92683  -0.92278  -0.92048  -0.91983  -0.91473
 Alpha  occ. eigenvalues --   -0.91236  -0.91045  -0.90680  -0.90372  -0.90329
 Alpha  occ. eigenvalues --   -0.89640  -0.87988  -0.87822  -0.87553  -0.87369
 Alpha  occ. eigenvalues --   -0.86640  -0.86437  -0.59132  -0.58874  -0.58067
 Alpha  occ. eigenvalues --   -0.57732  -0.55144  -0.51514  -0.51179  -0.50881
 Alpha  occ. eigenvalues --   -0.50752  -0.50622  -0.50540  -0.50469  -0.50326
 Alpha  occ. eigenvalues --   -0.50240  -0.50113  -0.49985  -0.49811  -0.49575
 Alpha  occ. eigenvalues --   -0.49233  -0.49029  -0.49002  -0.48575  -0.48392
 Alpha  occ. eigenvalues --   -0.47315  -0.47078  -0.46644  -0.45454  -0.44381
 Alpha  occ. eigenvalues --   -0.43984  -0.43869  -0.43185  -0.42917  -0.42784
 Alpha  occ. eigenvalues --   -0.42484  -0.42174  -0.42131  -0.41704  -0.40890
 Alpha  occ. eigenvalues --   -0.39754  -0.39692  -0.38817  -0.38429  -0.33699
 Alpha  occ. eigenvalues --   -0.33615  -0.33064  -0.32842  -0.32717  -0.32600
 Alpha  occ. eigenvalues --   -0.32533  -0.32402  -0.32296  -0.31880  -0.31852
 Alpha  occ. eigenvalues --   -0.31694  -0.31537  -0.31367  -0.31112  -0.31088
 Alpha  occ. eigenvalues --   -0.30939  -0.30749  -0.30282  -0.30058  -0.29777
 Alpha  occ. eigenvalues --   -0.28291  -0.28097  -0.27238  -0.26909  -0.26482
 Alpha  occ. eigenvalues --   -0.26289  -0.25501  -0.25343  -0.25190  -0.25086
 Alpha  occ. eigenvalues --   -0.24529  -0.24092  -0.23988  -0.23739  -0.23642
 Alpha virt. eigenvalues --   -0.05382  -0.04243  -0.03546  -0.03366  -0.02721
 Alpha virt. eigenvalues --   -0.02419  -0.02335  -0.01758  -0.00237   0.00639
 Alpha virt. eigenvalues --    0.00899   0.01603   0.01787   0.02209   0.02307
 Alpha virt. eigenvalues --    0.02526   0.02575   0.03009   0.03158   0.03551
 Alpha virt. eigenvalues --    0.03621   0.03816   0.03915   0.04312   0.05033
 Alpha virt. eigenvalues --    0.05088   0.05132   0.05167   0.05282   0.05711
 Alpha virt. eigenvalues --    0.05725   0.05909   0.05960   0.06446   0.06605
 Alpha virt. eigenvalues --    0.06927   0.07071   0.07150   0.07440   0.07522
 Alpha virt. eigenvalues --    0.07714   0.07755   0.07989   0.08284   0.08341
 Alpha virt. eigenvalues --    0.08573   0.08704   0.08778   0.08886   0.09065
 Alpha virt. eigenvalues --    0.09199   0.09461   0.09620   0.09655   0.09868
 Alpha virt. eigenvalues --    0.10102   0.10240   0.10327   0.10472   0.10525
 Alpha virt. eigenvalues --    0.10937   0.11285   0.11328   0.11497   0.11532
 Alpha virt. eigenvalues --    0.11740   0.11822   0.12265   0.12381   0.12589
 Alpha virt. eigenvalues --    0.13075   0.13421   0.13658   0.14093   0.14232
 Alpha virt. eigenvalues --    0.14399   0.14653   0.14824   0.14942   0.15299
 Alpha virt. eigenvalues --    0.15417   0.15482   0.15633   0.15864   0.16018
 Alpha virt. eigenvalues --    0.16302   0.16516   0.16581   0.16736   0.17044
 Alpha virt. eigenvalues --    0.17196   0.17238   0.17357   0.17425   0.17962
 Alpha virt. eigenvalues --    0.18282   0.18338   0.18522   0.18658   0.18798
 Alpha virt. eigenvalues --    0.19033   0.19254   0.19384   0.19716   0.19871
 Alpha virt. eigenvalues --    0.19930   0.20174   0.20373   0.20646   0.20774
 Alpha virt. eigenvalues --    0.21065   0.21396   0.21545   0.21735   0.21830
 Alpha virt. eigenvalues --    0.21886   0.22317   0.22398   0.22556   0.22706
 Alpha virt. eigenvalues --    0.23234   0.23411   0.23810   0.24310   0.24705
 Alpha virt. eigenvalues --    0.24806   0.25067   0.25114   0.25313   0.25556
 Alpha virt. eigenvalues --    0.25785   0.26384   0.26611   0.26786   0.26996
 Alpha virt. eigenvalues --    0.27282   0.27651   0.27724   0.27894   0.28040
 Alpha virt. eigenvalues --    0.28364   0.28775   0.28889   0.28961   0.29117
 Alpha virt. eigenvalues --    0.29314   0.29589   0.29721   0.29789   0.29829
 Alpha virt. eigenvalues --    0.30164   0.30317   0.30457   0.30532   0.30752
 Alpha virt. eigenvalues --    0.31049   0.31154   0.31300   0.31464   0.31766
 Alpha virt. eigenvalues --    0.32117   0.32247   0.32420   0.32518   0.32693
 Alpha virt. eigenvalues --    0.33058   0.33240   0.33556   0.33650   0.33817
 Alpha virt. eigenvalues --    0.33886   0.34380   0.34900   0.35003   0.35426
 Alpha virt. eigenvalues --    0.35615   0.35716   0.35836   0.35911   0.36156
 Alpha virt. eigenvalues --    0.36534   0.36826   0.37229   0.37455   0.37688
 Alpha virt. eigenvalues --    0.38136   0.38362   0.38466   0.38580   0.39015
 Alpha virt. eigenvalues --    0.39290   0.39313   0.39643   0.39763   0.39977
 Alpha virt. eigenvalues --    0.40141   0.40435   0.40569   0.40943   0.41050
 Alpha virt. eigenvalues --    0.41220   0.41455   0.41806   0.42169   0.42468
 Alpha virt. eigenvalues --    0.42838   0.42963   0.43173   0.43510   0.43637
 Alpha virt. eigenvalues --    0.43815   0.44062   0.44139   0.44389   0.44585
 Alpha virt. eigenvalues --    0.44912   0.45010   0.45287   0.45526   0.45780
 Alpha virt. eigenvalues --    0.46056   0.46318   0.46677   0.46871   0.47174
 Alpha virt. eigenvalues --    0.47790   0.47982   0.48047   0.48492   0.48726
 Alpha virt. eigenvalues --    0.48797   0.49559   0.49676   0.50231   0.50494
 Alpha virt. eigenvalues --    0.50645   0.50963   0.51260   0.51431   0.51675
 Alpha virt. eigenvalues --    0.51955   0.52402   0.52750   0.53044   0.53436
 Alpha virt. eigenvalues --    0.53596   0.54281   0.54341   0.54842   0.55079
 Alpha virt. eigenvalues --    0.55241   0.55433   0.55673   0.56359   0.56765
 Alpha virt. eigenvalues --    0.56845   0.57206   0.58095   0.58436   0.58600
 Alpha virt. eigenvalues --    0.59148   0.59300   0.59744   0.59972   0.60348
 Alpha virt. eigenvalues --    0.60482   0.60588   0.60807   0.61042   0.61301
 Alpha virt. eigenvalues --    0.61704   0.61761   0.61953   0.62400   0.62620
 Alpha virt. eigenvalues --    0.63041   0.63071   0.63187   0.63763   0.63927
 Alpha virt. eigenvalues --    0.64134   0.64431   0.64672   0.64877   0.65344
 Alpha virt. eigenvalues --    0.65647   0.65974   0.66069   0.66507   0.66891
 Alpha virt. eigenvalues --    0.67234   0.67628   0.68036   0.68286   0.68664
 Alpha virt. eigenvalues --    0.68789   0.69574   0.69650   0.70302   0.70632
 Alpha virt. eigenvalues --    0.70984   0.71129   0.71493   0.72396   0.72794
 Alpha virt. eigenvalues --    0.73070   0.73286   0.73304   0.74060   0.74206
 Alpha virt. eigenvalues --    0.74473   0.74574   0.74863   0.75245   0.75593
 Alpha virt. eigenvalues --    0.75662   0.76302   0.76585   0.76636   0.77500
 Alpha virt. eigenvalues --    0.77586   0.77751   0.78426   0.78654   0.78833
 Alpha virt. eigenvalues --    0.79076   0.79406   0.79919   0.79957   0.80367
 Alpha virt. eigenvalues --    0.80943   0.81325   0.81833   0.82035   0.82525
 Alpha virt. eigenvalues --    0.82762   0.83170   0.83546   0.84100   0.84310
 Alpha virt. eigenvalues --    0.85016   0.85259   0.85680   0.86185   0.86570
 Alpha virt. eigenvalues --    0.86627   0.86864   0.87098   0.87666   0.87812
 Alpha virt. eigenvalues --    0.88057   0.88420   0.88577   0.88848   0.89168
 Alpha virt. eigenvalues --    0.89535   0.89957   0.90252   0.90314   0.90615
 Alpha virt. eigenvalues --    0.90648   0.91162   0.91551   0.91821   0.91995
 Alpha virt. eigenvalues --    0.92678   0.92739   0.93057   0.93271   0.93952
 Alpha virt. eigenvalues --    0.94122   0.94273   0.94522   0.95308   0.95326
 Alpha virt. eigenvalues --    0.95424   0.95722   0.96012   0.96361   0.96896
 Alpha virt. eigenvalues --    0.97351   0.97480   0.97687   0.97717   0.98081
 Alpha virt. eigenvalues --    0.98514   0.98750   0.99196   0.99546   0.99736
 Alpha virt. eigenvalues --    0.99869   1.00349   1.00598   1.00954   1.01052
 Alpha virt. eigenvalues --    1.01145   1.01527   1.01669   1.01788   1.01958
 Alpha virt. eigenvalues --    1.02453   1.02768   1.03127   1.03269   1.03554
 Alpha virt. eigenvalues --    1.03703   1.03934   1.04260   1.04633   1.04731
 Alpha virt. eigenvalues --    1.04893   1.05090   1.05356   1.05546   1.05917
 Alpha virt. eigenvalues --    1.06112   1.06314   1.06752   1.06834   1.07279
 Alpha virt. eigenvalues --    1.07543   1.07981   1.08452   1.08971   1.09241
 Alpha virt. eigenvalues --    1.09481   1.09548   1.10230   1.10519   1.10919
 Alpha virt. eigenvalues --    1.11085   1.11423   1.11600   1.11713   1.12185
 Alpha virt. eigenvalues --    1.12450   1.12849   1.13231   1.13350   1.13555
 Alpha virt. eigenvalues --    1.13756   1.13891   1.14138   1.14825   1.15148
 Alpha virt. eigenvalues --    1.15452   1.15782   1.16000   1.16218   1.16354
 Alpha virt. eigenvalues --    1.16637   1.16741   1.17232   1.17442   1.17823
 Alpha virt. eigenvalues --    1.18127   1.18272   1.18392   1.18632   1.18913
 Alpha virt. eigenvalues --    1.19537   1.19624   1.19867   1.20197   1.20435
 Alpha virt. eigenvalues --    1.20717   1.21038   1.21245   1.21498   1.21700
 Alpha virt. eigenvalues --    1.22263   1.22424   1.22820   1.22978   1.23563
 Alpha virt. eigenvalues --    1.23870   1.24283   1.24632   1.24912   1.25339
 Alpha virt. eigenvalues --    1.25619   1.25882   1.26387   1.26984   1.27109
 Alpha virt. eigenvalues --    1.27519   1.27674   1.28264   1.28370   1.28933
 Alpha virt. eigenvalues --    1.28976   1.29253   1.29761   1.29792   1.30509
 Alpha virt. eigenvalues --    1.30835   1.30992   1.31240   1.31512   1.32055
 Alpha virt. eigenvalues --    1.32356   1.32800   1.33093   1.33657   1.34116
 Alpha virt. eigenvalues --    1.34136   1.34907   1.34988   1.35193   1.36044
 Alpha virt. eigenvalues --    1.36479   1.36721   1.37084   1.37645   1.37967
 Alpha virt. eigenvalues --    1.38620   1.39139   1.39370   1.40212   1.40469
 Alpha virt. eigenvalues --    1.40716   1.41433   1.41492   1.41730   1.42200
 Alpha virt. eigenvalues --    1.42760   1.42772   1.43569   1.44204   1.44507
 Alpha virt. eigenvalues --    1.45145   1.45418   1.45621   1.46713   1.46873
 Alpha virt. eigenvalues --    1.46948   1.47458   1.48211   1.48632   1.49115
 Alpha virt. eigenvalues --    1.50215   1.50559   1.50907   1.51599   1.52267
 Alpha virt. eigenvalues --    1.52703   1.52916   1.53738   1.54027   1.54489
 Alpha virt. eigenvalues --    1.55989   1.56866   1.58433   1.59098   1.59728
 Alpha virt. eigenvalues --    1.60447   1.60838   1.61644   1.63088   1.63126
 Alpha virt. eigenvalues --    1.63862   1.64560   1.65587   1.65801   1.66339
 Alpha virt. eigenvalues --    1.67212   1.67614   1.67972   1.68281   1.68551
 Alpha virt. eigenvalues --    1.69678   1.70335   1.70501   1.71265   1.71538
 Alpha virt. eigenvalues --    1.72307   1.73277   1.74468   1.75077   1.76657
 Alpha virt. eigenvalues --    1.77423   1.78382   1.78837   1.79426   1.79734
 Alpha virt. eigenvalues --    1.80067   1.80827   1.81629   1.82193   1.82818
 Alpha virt. eigenvalues --    1.83774   1.84403   1.84708   1.85080   1.85217
 Alpha virt. eigenvalues --    1.85709   1.86678   1.87089   1.87367   1.87664
 Alpha virt. eigenvalues --    1.87989   1.88460   1.89428   1.89998   1.90581
 Alpha virt. eigenvalues --    1.90792   1.91072   1.91291   1.91709   1.91766
 Alpha virt. eigenvalues --    1.92122   1.93312   1.93500   1.94250   1.94500
 Alpha virt. eigenvalues --    1.94983   1.95447   1.96155   1.96746   1.97158
 Alpha virt. eigenvalues --    1.97667   1.97899   1.98352   1.98519   1.98889
 Alpha virt. eigenvalues --    1.99334   1.99639   1.99967   2.00172   2.00990
 Alpha virt. eigenvalues --    2.01338   2.01478   2.01739   2.02591   2.03046
 Alpha virt. eigenvalues --    2.03280   2.03573   2.04136   2.04269   2.04715
 Alpha virt. eigenvalues --    2.05088   2.05312   2.06164   2.06307   2.06627
 Alpha virt. eigenvalues --    2.07167   2.07520   2.07910   2.08653   2.09241
 Alpha virt. eigenvalues --    2.09381   2.09724   2.10216   2.10356   2.10614
 Alpha virt. eigenvalues --    2.11342   2.11813   2.12318   2.12666   2.12734
 Alpha virt. eigenvalues --    2.13757   2.14029   2.14140   2.14535   2.15257
 Alpha virt. eigenvalues --    2.15454   2.15528   2.15769   2.16569   2.16883
 Alpha virt. eigenvalues --    2.17642   2.18031   2.18360   2.18503   2.19163
 Alpha virt. eigenvalues --    2.19422   2.19831   2.20357   2.20593   2.21013
 Alpha virt. eigenvalues --    2.21325   2.21664   2.22574   2.22900   2.23065
 Alpha virt. eigenvalues --    2.23262   2.23800   2.24927   2.24958   2.25271
 Alpha virt. eigenvalues --    2.25474   2.26464   2.26595   2.26741   2.27709
 Alpha virt. eigenvalues --    2.27972   2.28559   2.29531   2.30231   2.30593
 Alpha virt. eigenvalues --    2.31254   2.31624   2.32007   2.32426   2.32941
 Alpha virt. eigenvalues --    2.33297   2.33449   2.34478   2.34617   2.35740
 Alpha virt. eigenvalues --    2.36102   2.36352   2.36554   2.37069   2.37413
 Alpha virt. eigenvalues --    2.38203   2.38971   2.39303   2.39466   2.39735
 Alpha virt. eigenvalues --    2.40696   2.41023   2.42364   2.43159   2.43229
 Alpha virt. eigenvalues --    2.43801   2.44673   2.45252   2.46633   2.47259
 Alpha virt. eigenvalues --    2.48664   2.49842   2.50945   2.51523   2.52236
 Alpha virt. eigenvalues --    2.52860   2.52951   2.55137   2.55618   2.56549
 Alpha virt. eigenvalues --    2.57204   2.57712   2.58649   2.58970   2.59829
 Alpha virt. eigenvalues --    2.60726   2.61945   2.62016   2.62870   2.63239
 Alpha virt. eigenvalues --    2.64185   2.66339   2.67495   2.68039   2.68873
 Alpha virt. eigenvalues --    2.69482   2.70407   2.71473   2.72179   2.73496
 Alpha virt. eigenvalues --    2.73833   2.74526   2.84514   2.85228   2.85783
 Alpha virt. eigenvalues --    2.86445   2.92840   2.94307   2.95107   2.95632
 Alpha virt. eigenvalues --    2.96522   2.96623   2.97561   2.97628   2.97912
 Alpha virt. eigenvalues --    2.98628   2.98778   2.99105   2.99277   2.99693
 Alpha virt. eigenvalues --    3.00210   3.00475   3.00978   3.01438   3.01935
 Alpha virt. eigenvalues --    3.02298   3.02720   3.03081   3.03344   3.03532
 Alpha virt. eigenvalues --    3.04133   3.04791   3.05296   3.05332   3.05491
 Alpha virt. eigenvalues --    3.06417   3.07068   3.07424   3.07710   3.07970
 Alpha virt. eigenvalues --    3.08863   3.09201   3.09572   3.10290   3.10366
 Alpha virt. eigenvalues --    3.11188   3.11587   3.12116   3.12634   3.12809
 Alpha virt. eigenvalues --    3.12982   3.13265   3.13837   3.15080   3.15187
 Alpha virt. eigenvalues --    3.15648   3.16380   3.16689   3.17466   3.17761
 Alpha virt. eigenvalues --    3.18939   3.19135   3.19470   3.20318   3.21047
 Alpha virt. eigenvalues --    3.21681   3.22152   3.22500   3.23151   3.23919
 Alpha virt. eigenvalues --    3.24379   3.24476   3.24775   3.25213   3.26374
 Alpha virt. eigenvalues --    3.26421   3.27458   3.28038   3.29015   3.29443
 Alpha virt. eigenvalues --    3.29890   3.31607   3.32014   3.32496   3.33040
 Alpha virt. eigenvalues --    3.33140   3.34011   3.34589   3.35143   3.35849
 Alpha virt. eigenvalues --    3.37571   3.37759   3.38371   3.39192   3.40462
 Alpha virt. eigenvalues --    3.40737   3.41299   3.41551   3.41922   3.42427
 Alpha virt. eigenvalues --    3.42779   3.42891   3.43246   3.43883   3.43960
 Alpha virt. eigenvalues --    3.44243   3.44650   3.45201   3.45409   3.45901
 Alpha virt. eigenvalues --    3.46051   3.46601   3.46925   3.47329   3.47517
 Alpha virt. eigenvalues --    3.47845   3.48275   3.48759   3.48945   3.49310
 Alpha virt. eigenvalues --    3.49735   3.49928   3.50430   3.50652   3.50969
 Alpha virt. eigenvalues --    3.51029   3.51459   3.51802   3.52159   3.52384
 Alpha virt. eigenvalues --    3.52715   3.53113   3.53337   3.53927   3.54085
 Alpha virt. eigenvalues --    3.54496   3.54714   3.55152   3.55325   3.55677
 Alpha virt. eigenvalues --    3.55920   3.56377   3.57231   3.57299   3.57808
 Alpha virt. eigenvalues --    3.58308   3.58635   3.59184   3.59581   3.60036
 Alpha virt. eigenvalues --    3.60579   3.60835   3.61444   3.61923   3.62082
 Alpha virt. eigenvalues --    3.62373   3.62615   3.63076   3.63589   3.63743
 Alpha virt. eigenvalues --    3.63817   3.63948   3.64628   3.64799   3.65310
 Alpha virt. eigenvalues --    3.65475   3.65946   3.66437   3.66759   3.66967
 Alpha virt. eigenvalues --    3.67225   3.67583   3.68353   3.68493   3.68786
 Alpha virt. eigenvalues --    3.69068   3.69291   3.69644   3.70085   3.70760
 Alpha virt. eigenvalues --    3.71031   3.71372   3.71963   3.72256   3.73214
 Alpha virt. eigenvalues --    3.73686   3.74113   3.74424   3.74780   3.75030
 Alpha virt. eigenvalues --    3.75353   3.75711   3.76308   3.76686   3.76842
 Alpha virt. eigenvalues --    3.77942   3.78205   3.78556   3.79020   3.79813
 Alpha virt. eigenvalues --    3.79931   3.81286   3.81783   3.82146   3.83277
 Alpha virt. eigenvalues --    3.84029   3.84268   3.84886   3.85660   3.86152
 Alpha virt. eigenvalues --    3.86376   3.87453   3.87900   3.88840   3.89451
 Alpha virt. eigenvalues --    3.89560   3.91683   3.92145   3.92823   3.95228
 Alpha virt. eigenvalues --    3.96439   3.98014   4.02745   4.02917   4.03496
 Alpha virt. eigenvalues --    4.03569   4.03982   4.04148   4.04507   4.05061
 Alpha virt. eigenvalues --    4.05240   4.05908   4.06153   4.06997   4.07438
 Alpha virt. eigenvalues --    4.08282   4.08525   4.09293   4.09536   4.09904
 Alpha virt. eigenvalues --    4.10318   4.10867   4.11031   4.11968   4.12481
 Alpha virt. eigenvalues --    4.13751   4.15635   4.16808   4.30890   4.33552
 Alpha virt. eigenvalues --    4.34189   4.35814   4.36989   4.37604   4.40013
 Alpha virt. eigenvalues --    4.40277   4.40498   4.41128   4.43444   4.43980
 Alpha virt. eigenvalues --    4.44199   4.45123   4.46244   4.46540   4.47488
 Alpha virt. eigenvalues --    4.47805   4.48452   4.48920   4.49766   4.50201
 Alpha virt. eigenvalues --    4.50536   4.51778   4.52571   4.53152   4.55316
 Alpha virt. eigenvalues --    4.55575   4.56183   4.56350   4.56816   4.58121
 Alpha virt. eigenvalues --    4.58574   4.60034   4.60347   4.62267   4.63311
 Alpha virt. eigenvalues --    4.66256   4.66678   4.67238   4.67836   4.68393
 Alpha virt. eigenvalues --    4.77324   4.78493   4.79754   4.79966   4.80082
 Alpha virt. eigenvalues --    4.80932   4.81226   4.81852   4.82525   4.83049
 Alpha virt. eigenvalues --    4.83265   4.83884   4.84262   4.84864   4.84981
 Alpha virt. eigenvalues --    4.85346   4.85884   4.86240   4.86723   4.86926
 Alpha virt. eigenvalues --    4.87352   4.87768   4.87958   4.88211   4.88938
 Alpha virt. eigenvalues --    4.89384   4.89837   4.90645   4.90938   4.91003
 Alpha virt. eigenvalues --    4.91251   4.91626   4.91903   4.92293   4.92869
 Alpha virt. eigenvalues --    4.93233   4.93412   4.93850   4.93958   4.94216
 Alpha virt. eigenvalues --    4.94488   4.94553   4.94722   4.95163   4.95481
 Alpha virt. eigenvalues --    4.95969   4.96057   4.96231   4.96356   4.96614
 Alpha virt. eigenvalues --    4.96786   4.97012   4.97604   4.97770   4.98036
 Alpha virt. eigenvalues --    4.98436   4.99005   4.99725   5.00175   5.00636
 Alpha virt. eigenvalues --    5.01086   5.01881   5.02020   5.02645   5.03278
 Alpha virt. eigenvalues --    5.03525   5.03895   5.04238   5.05314   5.05677
 Alpha virt. eigenvalues --    5.06070   5.06673   5.07080   5.07480   5.08016
 Alpha virt. eigenvalues --    5.08586   5.08943   5.09262   5.09616   5.10540
 Alpha virt. eigenvalues --    5.11066   5.11681   5.11884   5.12128   5.12335
 Alpha virt. eigenvalues --    5.12689   5.13180   5.13568   5.13952   5.14191
 Alpha virt. eigenvalues --    5.14425   5.14556   5.14854   5.15391   5.15727
 Alpha virt. eigenvalues --    5.16406   5.16667   5.17184   5.17503   5.17766
 Alpha virt. eigenvalues --    5.18162   5.18786   5.19558   5.19919   5.20169
 Alpha virt. eigenvalues --    5.20257   5.20591   5.20789   5.21588   5.21960
 Alpha virt. eigenvalues --    5.22035   5.22630   5.22766   5.23048   5.23502
 Alpha virt. eigenvalues --    5.23897   5.24012   5.24598   5.24845   5.25075
 Alpha virt. eigenvalues --    5.25471   5.25599   5.25956   5.26721   5.27057
 Alpha virt. eigenvalues --    5.27335   5.27619   5.28274   5.28748   5.29144
 Alpha virt. eigenvalues --    5.30161   5.30263   5.30495   5.30812   5.31309
 Alpha virt. eigenvalues --    5.31563   5.31834   5.32085   5.32202   5.33049
 Alpha virt. eigenvalues --    5.33223   5.33715   5.34099   5.34534   5.34887
 Alpha virt. eigenvalues --    5.35302   5.35584   5.36495   5.36722   5.37193
 Alpha virt. eigenvalues --    5.37777   5.38406   5.38501   5.39522   5.39935
 Alpha virt. eigenvalues --    5.40210   5.40721   5.42276   5.42758   5.43203
 Alpha virt. eigenvalues --    5.43484   5.43529   5.44174   5.44708   5.45366
 Alpha virt. eigenvalues --    5.45544   5.46478   5.46737   5.47021   5.47861
 Alpha virt. eigenvalues --    5.48193   5.48587   5.49511   5.50022   5.50479
 Alpha virt. eigenvalues --    5.50494   5.51627   5.51968   5.52813   5.53492
 Alpha virt. eigenvalues --    5.53618   5.54609   5.55064   5.56160   5.56635
 Alpha virt. eigenvalues --    5.57330   5.58065   5.58475   5.58869   5.59399
 Alpha virt. eigenvalues --    5.59696   5.60525   5.61289   5.61703   5.62237
 Alpha virt. eigenvalues --    5.62704   5.64054   5.64659   5.65234   5.65607
 Alpha virt. eigenvalues --    5.66049   5.66183   5.66898   5.68306   5.69266
 Alpha virt. eigenvalues --    5.70800   5.72467   5.72765   5.73594   5.74858
 Alpha virt. eigenvalues --    5.74972   5.75868   5.76538   5.76993   5.78288
 Alpha virt. eigenvalues --    5.78835   5.79219   5.79961   5.81880   5.83079
 Alpha virt. eigenvalues --    5.83633   5.84459   5.85219   5.86184   5.86661
 Alpha virt. eigenvalues --    5.86993   5.87613   5.89091   5.89577   5.90130
 Alpha virt. eigenvalues --    5.90591   5.90820   5.91497   5.92760   5.94663
 Alpha virt. eigenvalues --    5.95920   6.01045   6.04785   6.18876   6.19214
 Alpha virt. eigenvalues --    6.19767   6.20147   6.25726   6.26255   6.26431
 Alpha virt. eigenvalues --    6.26706   6.30841   6.38155   6.39818   6.40388
 Alpha virt. eigenvalues --    6.43227   6.46716   6.47541   6.48781   6.49323
 Alpha virt. eigenvalues --    6.50857   6.52042   6.53208   6.54856   6.56462
 Alpha virt. eigenvalues --    6.57503   6.58630   6.60988   6.61771   6.62390
 Alpha virt. eigenvalues --    6.63175   6.64858   6.65707   6.66074   6.66499
 Alpha virt. eigenvalues --    6.67260   6.67889   6.68549   6.69114   6.69776
 Alpha virt. eigenvalues --    6.71698   6.72170   6.73615   6.76006   6.78248
 Alpha virt. eigenvalues --    6.79807   6.84862   6.87469   8.19917   8.20261
 Alpha virt. eigenvalues --    8.20549   8.20954   8.29358   8.30932   8.31573
[...]
 033330,0.00009983,-0.00000276,0.00005514,0.00022166,-0.00020626,0.0002
 5025,0.00078990,-0.00058945,0.00105057,0.00019368,-0.00007795,-0.00003
 365,-0.00000958,-0.00000919,-0.00000079,-0.00000175,-0.00003022,0.0000
 3920,0.00058065,-0.00073050,-0.00120519,0.00004446,0.00018551,0.000262
 37,-0.00096287,-0.00063884,0.00023115,-0.00001776,0.00011442,0.0001841
 4,0.00012422,0.00051195,0.00035984,-0.00011124,-0.00003015,-0.00006805
 ,-0.00007337,-0.00004095,-0.00003058,0.00001387,0.00003230,0.00001867,
 0.00002958,0.00000177,0.00001443,0.00004837,0.00003684,-0.00000029,0.0
 0003330,0.00000690,0.00002582,-0.00000407,-0.00000467,-0.00000730,-0.0
 0001910,0.00000466,-0.00002797,-0.00002235,-0.00001696,0.00000281,-0.0
 0006080,0.00002443,0.00000569,0.00002733,-0.00002279,0.00000343,0.0000
 2928,-0.00000512,-0.00001135,0.00002129,-0.00000342,0.00000258,0.00003
 753,-0.00000743,-0.00000095,-0.00000651,0.00000113,-0.00000239,-0.0000
 3206,-0.00004402,0.00000266,0.00006308,-0.00003435,0.00002250,-0.00002
 840,0.00002729,0.00002506,0.00001725,0.00003287,0.00000069,-0.00016628
 ,0.00007876,-0.00003957,0.00002991,0.00000306,0.00001663,-0.00003443,0
 .00000746,0.00000545,-0.00000384,-0.00000098,-0.00000371,-0.00001221,0
 .00000007,-0.00003200,0.00008916,0.00003941,-0.00000311,-0.00001507,0.
 00000342,-0.00003677,-0.00001882,-0.00004115,-0.00000513,-0.00005671,-
 0.00005355,0.00009630,0.00003171,0.00002054,0.00000117,-0.00000712,-0.
 00000237,0.00000124,-0.00002769,0.00001033,-0.00000667,-0.00000896,-0.
 00000081,0.00000123,0.00006613,0.00003938,0.00001155,-0.00011966,-0.00
 006480,0.00003141,-0.00000611,-0.00002256,-0.00000376,-0.00003542,-0.0
 0000617,-0.00003028,-0.09912836,-0.28493053,-0.13584731,0.10790889,0.3
 0120415,0.00012727,-0.00043127,-0.00011929,-0.00027224,0.00044695,0.00
 008887,-0.00010501,0.00008105,0.00000457,-0.00000219,0.00013149,-0.000
 07323,0.00003439,0.00019941,-0.00002383,0.00139530,0.01506091,0.012091
 34,-0.00000233,-0.00001844,0.00001001,-0.00033276,0.00010137,-0.000241
 31,0.00018992,0.00020986,0.00018529,-0.00007542,0.00003344,-0.00008147
 ,-0.00018515,0.00084263,-0.00063367,0.00020496,0.00002524,-0.00001741,
 -0.00002489,-0.00001760,-0.00000259,-0.00001787,0.00004143,-0.00004634
 ,-0.00016887,-0.00105094,-0.00020534,0.00003227,0.00008334,0.00002326,
 0.00005373,0.00018832,0.00034944,-0.00007891,0.00017945,-0.00007820,0.
 00162483,0.00079352,-0.00084668,-0.00004306,-0.00000807,0.00000851,-0.
 00002862,-0.00007479,0.00003107,0.00000552,0.00003501,0.00000796,-0.00
 000120,0.00003238,-0.00000789,0.00003161,0.00004317,-0.00001051,0.0000
 0714,0.00001969,-0.00002384,-0.00000244,-0.00000696,-0.00000384,0.0000
 1798,-0.00001205,0.00001439,-0.00005148,-0.00006404,0.00002846,-0.0000
 5758,-0.00002822,0.00006672,0.00001350,0.00001208,-0.00001426,0.000041
 79,0.00001810,-0.00004685,0.00002168,0.00000942,-0.00002127,0.00003470
 ,0.00000240,-0.00001064,-0.00000632,-0.00000306,0.00000114,-0.00003099
 ,-0.00005111,0.00001061,0.00006677,-0.00001176,-0.00001915,-0.00005981
 ,-0.00003796,0.00008989,0.00001840,0.00000316,0.00004255,-0.00009875,0
 .00009731,-0.00000258,0.00004247,0.00003578,-0.00001480,-0.00004630,0.
 00000328,0.00001043,0.00000316,-0.00002753,-0.00000633,-0.00000667,-0.
 00000808,0.00000785,0.00000491,0.00001093,-0.00000392,0.00002089,-0.00
 004598,0.00002058,-0.00000894,-0.00003014,-0.00001286,0.00001882,0.000
 06246,0.00002194,0.00001917,0.00002526,-0.00000519,-0.00000061,-0.0000
 0217,0.00000800,-0.00000624,-0.00000236,0.00000295,-0.00000832,-0.0000
 0241,0.00000722,0.00000957,0.00001983,-0.00001959,-0.00005066,-0.00004
 000,0.00003490,0.00000164,0.00000443,0.00001711,0.00000433,-0.00000513
 ,0.00000509,-0.05690833,-0.13388200,-0.13134567,0.06323830,0.14808586,
 0.13319314,-0.00297950,0.01664247,0.02564759,0.00337735,-0.01460511,-0
 .01359721,0.00351899,-0.00303258,-0.00392757,-0.00138473,-0.00069296,-
 0.00730845,-0.00259098,-0.00768338,-0.00285429,-0.01839898,0.01220133,
 0.00174299,0.00078564,0.00024384,0.00014457,-0.00302025,-0.00108379,-0
 .00308760,0.00035900,0.00135858,0.00110494,0.00060901,-0.00034916,0.00
 094939,0.00259686,0.00003575,0.00320669,0.00063560,0.00016165,0.000536
 38,-0.00044426,-0.00035479,-0.00004361,-0.00000670,-0.00010322,-0.0000
 2282,-0.00264381,-0.00559919,0.00081018,0.00139403,0.00118521,0.000585
 86,0.00133415,0.00316646,0.00065821,-0.00064511,0.00236871,-0.00081109
 ,0.00257662,0.00285990,0.00026535,0.00297294,0.00011864,0.00095732,0.0
 0111792,-0.00028988,-0.00023203,-0.00017965,0.00012780,0.00007376,-0.0
 0056863,0.00043286,-0.00001575,-0.00058852,-0.00008106,0.00010722,-0.0
 0047462,0.00011373,0.00006625,0.00006722,-0.00001025,-0.00000569,0.001
 28317,-0.00129234,-0.00065130,-0.00016087,-0.00027726,0.00002836,-0.00
 052248,-0.00050575,-0.00033399,0.00007361,0.00025844,0.00005147,0.0001
 7042,0.00012218,0.00003227,0.00039903,0.00036304,0.00024825,0.00025843
 ,0.00006103,0.00004410,-0.00002683,-0.00002507,-0.00001113,-0.00040011
 ,-0.00083157,0.00004541,0.00055828,0.00006008,0.00015358,-0.00019353,-
 0.00004786,-0.00001561,-0.00012843,0.00000625,0.00003545,-0.00078310,0
 .00024241,-0.00021234,0.00013565,0.00028014,0.00021648,-0.00010509,-0.
 00001239,-0.00001108,0.00013095,-0.00039521,-0.00010911,-0.00016650,-0
 .00005973,-0.00046542,-0.00178406,0.00025992,0.00029972,0.00037224,-0.
 00062889,-0.00000383,0.00010672,-0.00000715,0.00005596,0.00076598,-0.0
 0054409,-0.00169582,0.00012508,0.00049038,0.00006234,0.00000187,-0.000
 04661,0.00001344,-0.00000216,-0.00005780,0.00000138,0.00020507,-0.0001
 5512,-0.00016245,-0.00173394,-0.00011639,0.00072289,0.00265386,0.00137
 729,-0.00102334,0.00011936,0.00012401,-0.00005408,0.00038935,-0.000020
 23,0.00026041,-0.18303788,0.11891574,0.01478703,0.01513354,-0.01192747
 ,-0.00039363,0.18603760,0.00465882,-0.01682208,-0.02282617,-0.00844915
 ,0.00915178,0.01149857,-0.00386703,0.00330368,0.00405114,0.00082420,0.
 00017602,0.00631472,0.00108020,0.00470819,0.00153518,-0.00521662,0.017
 72810,-0.00298159,-0.00096908,0.00000244,-0.00014254,0.00333065,0.0015
 8008,0.00307224,-0.00039790,-0.00162031,-0.00107713,-0.00066376,0.0002
 0597,-0.00085460,-0.00275159,-0.00016073,-0.00341895,-0.00081452,-0.00
 026926,-0.00044783,0.00035534,0.00037306,0.00004544,0.00000149,0.00012
 939,-0.00000125,-0.00341951,0.00674915,0.00443567,0.00038648,-0.001189
 92,-0.00097943,0.00283950,-0.00205513,-0.00190453,0.00127926,-0.002094
 91,-0.00013490,-0.00291195,-0.00642186,-0.00055038,-0.00218325,-0.0000
 8050,-0.00098591,-0.00106594,0.00004925,-0.00013311,0.00017055,0.00002
 121,0.00003386,0.00053751,-0.00034577,0.00009618,0.00054793,0.00018109
 ,-0.00001132,0.00046224,-0.00001896,0.00012934,-0.00005781,-0.00000249
 ,-0.00001605,-0.00105091,0.00073515,0.00055992,0.00020360,0.00036540,-
 0.00009380,0.00025465,0.00052808,0.00022458,0.00003777,-0.00031042,-0.
 00001577,-0.00008265,-0.00013950,-0.00001268,-0.00026816,-0.00034053,-
 0.00018433,-0.00011350,-0.00007478,-0.00003076,0.00000530,0.00002386,-
 0.00000019,0.00014352,0.00037333,-0.00004693,-0.00038843,-0.00019148,-
 0.00003751,0.00025194,0.00011560,-0.00008021,0.00013213,-0.00000009,-0
 .00002256,0.00048652,0.00003596,0.00007255,-0.00004725,-0.00030798,-0.
 00004000,0.00001248,0.00003424,0.00002083,-0.00013986,0.00033834,0.000
 07160,-0.00001591,0.00008970,0.00010513,0.00132171,-0.00020401,0.00014
 181,-0.00042492,0.00073397,-0.00006667,-0.00010555,-0.00011876,-0.0000
 5219,-0.00058185,0.00021880,0.00027752,0.00003330,-0.00025930,-0.00001
 757,-0.00002952,0.00002075,0.00000084,-0.00011806,0.00009139,-0.000039
 43,-0.00018381,0.00010174,0.00011875,0.00133143,0.00016106,-0.00049554
 ,-0.00184263,-0.00127365,0.00068604,-0.00007389,-0.00011170,0.00005366
 ,-0.00038270,-0.00007202,-0.00028668,0.11162480,-0.16251337,-0.0156605
 9,0.01795657,-0.01595802,-0.00114613,-0.11596902,0.16895681,0.00445339
 ,-0.00619113,-0.00250936,-0.00527722,0.00481205,-0.00484546,-0.0002421
 4,-0.00011344,-0.00034615,-0.00077658,0.00111991,-0.00054554,0.0003034
 2,0.00087546,-0.00021977,0.01121749,-0.01322479,-0.00173674,0.00018691
 ,-0.00016229,0.00013449,0.00080300,0.00037075,0.00042387,-0.00010016,-
 0.00052275,-0.00026873,-0.00019188,0.00006263,-0.00020583,-0.00080762,
 -0.00013265,-0.00221787,-0.00001450,-0.00004418,-0.00014062,0.00004639
 ,0.00005233,0.00001272,-0.00002606,0.00006320,-0.00000258,0.00005889,0
 .00092029,0.00130274,0.00012113,-0.00012718,-0.00018044,0.00049702,-0.
 00037991,-0.00133842,-0.00002030,-0.00001502,-0.00044792,-0.00012762,0
 .00009440,-0.00045779,-0.00037442,-0.00027964,-0.00040457,-0.00032959,
 -0.00012129,0.00014099,0.00005659,0.00005744,-0.00000040,0.00011831,-0
 .00003112,-0.00001198,0.00021402,0.00018079,-0.00005802,0.00007756,0.0
 0002348,-0.00009041,-0.00001464,-0.00001114,-0.00000968,-0.00006871,0.
 00016094,0.00013135,0.00001005,0.00005339,-0.00001776,0.00001706,0.000
 06351,0.00007861,0.00000861,-0.00003755,-0.00001496,0.00000955,-0.0000
 1231,-0.00003268,-0.00003586,-0.00004957,-0.00004292,-0.00000426,-0.00
 000972,-0.00001211,-0.00000203,0.00000210,0.00000171,0.00001981,0.0000
 3035,0.00000769,-0.00007673,0.00000237,-0.00003420,0.00002814,0.000009
 96,0.00001756,0.00000712,-0.00000195,-0.00000293,0.00011561,-0.0000490
 3,0.00003620,0.00001740,-0.00005057,-0.00001824,-0.00002839,0.00000988
 ,0.00001254,-0.00003434,0.00004809,0.00001446,-0.00001437,0.00001253,0
 .00004157,0.00035854,0.00016966,-0.00002316,-0.00022123,0.00017163,-0.
 00010971,-0.00006150,-0.00022774,0.00001201,-0.00043465,-0.00029256,0.
 00020502,0.00000914,-0.00003134,-0.00001605,0.00000316,0.00000452,0.00
 000788,-0.00001376,0.00000890,-0.00000094,-0.00004147,0.00002001,0.000
 03511,0.00019399,0.00004075,-0.00014229,-0.00037045,-0.00018314,0.0002
 2527,-0.00000386,0.00000882,0.00002739,-0.00001012,-0.00001424,0.00000
 862,0.01243475,-0.01442231,-0.05926318,0.01356277,-0.01004523,-0.00259
 482,-0.01357782,0.01675385,0.06562407,-0.00095996,0.00272354,0.0014652
 4,0.00072454,-0.00142058,-0.00016175,0.00033084,-0.00027217,-0.0001631
 4,-0.00004313,-0.00075117,-0.00061527,-0.00030149,-0.00096757,-0.00008
 102,0.01517022,-0.00444133,0.02411046,-0.00000895,0.00004647,0.0000074
 9,-0.01442687,-0.00238010,-0.00741717,0.00171161,0.00279620,0.00195906
 ,0.00236186,-0.00100659,0.00225162,0.00620264,0.00026807,0.00709154,0.
 00240215,0.00001125,0.00011426,-0.00017257,-0.00022584,-0.00002147,-0.
 00000069,-0.00044150,0.00010049,0.00072298,0.00073967,0.00183734,-0.00
 096259,-0.00017550,-0.00101098,-0.00069147,0.00023683,-0.00057269,-0.0
 0020557,0.00003604,-0.00029330,-0.00283815,-0.00112500,-0.00123243,0.0
 0086370,0.00025916,0.00041586,0.00041972,-0.00029057,0.00034340,-0.000
 06764,0.00010349,-0.00001472,-0.00028644,0.00031888,-0.00011990,-0.000
 13140,0.00007232,-0.00006942,-0.00016048,0.00005001,-0.00023742,0.0000
 2051,-0.00002436,-0.00001017,0.00010494,-0.00003965,0.00000235,-0.0006
 1331,-0.00081052,0.00025477,-0.00023028,-0.00043817,0.00036714,-0.0000
 3444,0.00026651,-0.00009880,0.00023746,0.00018178,-0.00027755,0.000112
 00,0.00017435,-0.00006838,0.00013807,0.00005895,-0.00005570,-0.0000270
 5,-0.00002590,0.00000791,0.00006236,0.00003088,0.00001318,-0.00004339,
 0.00043690,-0.00055465,-0.00080954,-0.00038556,0.00094987,-0.00003561,
 0.00002572,0.00006786,0.00059880,-0.00056702,0.00048969,0.00025073,0.0
 0052021,-0.00037660,-0.00023155,-0.00000251,0.00004707,0.00011232,-0.0
 0032307,-0.00005626,0.00010780,-0.00021142,0.00051394,-0.00058283,0.00
 024494,-0.00028118,0.00067265,-0.00077204,0.00006947,-0.00003479,-0.00
 004284,-0.00001424,0.00028420,-0.00020082,0.00029517,-0.00009329,0.000
 01160,-0.00002411,0.00001926,-0.00000643,0.00001585,0.00012601,-0.0000
 8497,0.00006318,0.00002643,-0.00001872,0.00001054,-0.00025108,-0.00010
 003,0.00000704,0.00038383,0.00023506,-0.00011121,0.00002208,0.00003438
 ,0.00000268,0.00015414,0.00004247,0.00013714,-0.08501121,0.02210495,-0
 .08425716,-0.00509386,0.00342133,-0.00820943,-0.00729479,0.00431689,-0
 .02164753,0.08730056,0.00112408,-0.00084716,-0.00012436,-0.00000351,0.
 00002715,-0.00048654,-0.00027194,0.00000546,-0.00005962,-0.00035119,0.
 00029729,0.00010551,-0.00012187,0.00019395,0.00002021,0.00511259,-0.00
 451932,0.01155734,0.00006581,-0.00001520,-0.00001200,0.00519535,0.0009
 6975,0.00098258,-0.00163691,-0.00255800,-0.00153858,-0.00068237,0.0001
 3965,-0.00045092,-0.00359437,-0.00351828,-0.00045933,-0.00174040,-0.00
 030994,0.00034639,0.00003364,0.00009951,0.00000726,0.00005028,0.000119
 97,0.00010488,-0.00310760,-0.00052485,0.00209666,0.00123355,0.00012241
 ,0.00030741,0.00172506,0.00166877,-0.00100502,0.00033596,0.00044824,-0
 .00062478,0.00071153,0.00001914,-0.00076302,-0.00001571,-0.00018291,-0
 .00027307,-0.00035768,-0.00005639,-0.00035144,0.00006099,0.00007362,0.
 00007962,0.00018877,-0.00012579,0.00011188,0.00015621,0.00011778,0.000
 07678,0.00011668,0.00003882,0.00021044,-0.00001330,-0.00000123,-0.0000
 1613,0.00012954,-0.00021821,-0.00001949,0.00036907,0.00054894,-0.00026
 059,-0.00007136,0.00025875,-0.00025218,0.00009693,-0.00018675,0.000075
 36,-0.00005129,-0.00010884,0.00015074,0.00003739,-0.00007608,0.0000678
 8,0.00003410,-0.00004475,0.00003600,-0.00000075,0.00001498,-0.00001085
 ,-0.00019416,-0.00029711,-0.00000781,0.00010112,-0.00027355,0.00033379
 ,0.00028355,0.00025728,-0.00053402,0.00004254,0.00002905,-0.00003884,-
 0.00055854,0.00037019,-0.00021031,-0.00006906,-0.00032421,0.00032819,0
 .00004328,0.00002269,-0.00000844,-0.00007730,0.00014604,0.00001305,-0.
 00022584,0.00006931,-0.00048729,0.00020859,0.00003365,0.00036624,-0.00
 049225,0.00052344,-0.00032591,-0.00006549,-0.00017785,0.00002300,-0.00
 009845,-0.00056896,-0.00090606,0.00016387,0.00013139,0.00003642,-0.000
 02712,-0.00001152,0.00000180,-0.00015101,0.00007100,-0.00005996,-0.000
 01794,-0.00001551,-0.00001699,-0.00002375,0.00012462,0.00005607,0.0000
 1966,-0.00009429,0.00001039,0.00000176,-0.00000563,0.00000838,-0.00008
 203,-0.00009282,-0.00008961,0.02562142,-0.07705591,0.06834967,-0.01017
 072,0.01051045,-0.02993076,0.00322749,-0.00432606,0.02057982,-0.022216
 92,0.07908380,-0.00071101,0.00282441,0.00628055,0.00331079,-0.00437036
 ,-0.00316571,0.00069724,-0.00058463,-0.00105676,-0.00077810,0.00023045
 ,-0.00246990,-0.00023905,-0.00115363,-0.00093322,-0.00038648,0.0070008
 9,-0.01613402,0.00021186,-0.00003368,0.00005502,-0.02155692,-0.0053745
 5,-0.00834667,0.00323304,0.00442009,0.00328082,0.00451145,-0.00135733,
 0.00389736,0.01414317,0.00301136,0.00287960,0.00649286,0.00042616,-0.0
 0172895,0.00004131,-0.00004770,0.00002460,-0.00022393,-0.00072487,0.00
 045917,0.00236917,0.00439155,0.00292747,-0.00199478,-0.00069409,-0.001
 81667,-0.00083656,-0.00131753,-0.00175571,-0.00014151,-0.00094391,-0.0
 0035244,-0.00351234,-0.00369057,-0.00040204,0.00121646,-0.00012267,0.0
 0042071,0.00028693,-0.00052047,0.00101971,-0.00003952,0.00016568,-0.00
 009580,-0.00032970,0.00046257,-0.00028197,0.00006271,0.00034195,-0.000
 28126,-0.00017855,0.00006525,-0.00066077,0.00001573,-0.00005011,-0.000
 01281,-0.00016435,0.00028401,0.00016185,-0.00114578,-0.00143290,0.0005
 4154,-0.00010770,-0.00052852,0.00101484,-0.00011430,0.00035834,-0.0002
 4003,0.00036299,0.00028050,-0.00059848,-0.00009731,0.00004071,-0.00032
 623,0.00009326,0.00007930,-0.00015172,-0.00003862,-0.00003756,0.000023
 05,0.00029352,0.00042426,0.00003470,-0.00035092,0.00050591,-0.00111125
 ,-0.00074438,-0.00057464,0.00206600,0.00008453,0.00002836,0.00007443,0
 .00152096,-0.00065196,0.00059333,0.00043256,0.00084270,-0.00082804,-0.
 00041100,0.00000823,0.00011171,0.00014098,-0.00044885,-0.00006206,0.00
 030839,-0.00028792,0.00122309,-0.00052874,0.00076571,-0.00079621,0.000
 72954,-0.00142916,-0.00012147,-0.00015435,-0.00039358,-0.00002344,-0.0
 0023317,-0.00060456,0.00161678,-0.00024417,-0.00019803,-0.00008287,0.0
 0004615,0.00001342,0.00002178,0.00024753,-0.00013733,0.00012108,-0.000
 02124,0.00002923,0.00009158,-0.00011067,-0.00025919,-0.00016807,0.0002
 7740,0.00025284,-0.00003131,0.00002159,0.00004400,0.00000533,0.0002596
 9,0.00012478,0.00028364,-0.08525584,0.06000770,-0.28029254,-0.00251467
 ,0.00316397,-0.00984992,-0.00328819,0.00449582,0.00986235,0.08504201,-
 0.06711986,0.29508629\\-0.00000975,0.00001195,0.00000515,-0.00000575,0
 .00001086,-0.00000204,0.00000621,0.00001486,0.00000882,0.00000888,0.00
 001893,0.00001494,0.00000245,0.00001427,-0.00000953,-0.00000494,-0.000
 00345,0.00001130,0.00000211,0.00001501,0.00000782,-0.00000507,-0.00000
 559,0.00001864,-0.00000545,0.00002007,0.00000097,-0.00000651,0.0000132
 6,0.00000662,0.00000077,-0.00000948,0.00000899,-0.00000865,-0.00000238
 ,0.00000245,-0.00001226,-0.00001465,0.00000211,-0.00000900,0.00000780,
 0.00001194,-0.00000023,-0.00000109,0.00003249,-0.00000299,-0.00000226,
 -0.00000264,-0.00000258,-0.00000338,-0.00001230,-0.00000566,0.00000455
 ,-0.00001697,-0.00000802,-0.00001410,-0.00002752,-0.00000207,0.0000001
 1,0.00000906,0.00001536,0.00002225,-0.00001526,0.00001660,-0.00000042,
 -0.00001436,0.00000238,-0.00001507,0.00000660,-0.00000185,0.00000906,-
 0.00000753,0.00000681,-0.00001512,0.00000281,0.00001693,0.00000944,-0.
 00001178,0.00000724,-0.00000453,-0.00000610,-0.00000392,0.00000184,0.0
 0000364,-0.00000395,-0.00001395,-0.00001738,0.00000843,-0.00001445,0.0
 0000593,0.00000540,-0.00001236,0.00000441,-0.00000092,-0.00001247,-0.0
 0000981,0.00000103,-0.00001519,-0.00000905,0.00000158,-0.00001797,-0.0
 0000788,0.00001059,0.00001236,-0.00001363,-0.00001078,-0.00001132,0.00
 001202,-0.00000341,-0.00000486,0.00000078,-0.00001022,-0.00001078,0.00
 000347,-0.00000729,-0.00001356,0.00000999,-0.00000062,-0.00001816,-0.0
 0000479,-0.00000308,0.00000175,0.00000502,0.00001594,0.00001949,-0.000
 02402,0.00000158,-0.00000952,0.00001305,0.00001607,0.00001177,-0.00002
 416,-0.00000282,0.00001284,0.00001861,0.00000522,0.00001364,0.00001260
 ,-0.00000373,0.00000946,0.00002072,-0.00001066,-0.00003766,-0.00000780
 ,0.00000683,-0.00000987,-0.00001112,-0.00000587,0.00000186,-0.00002198
 ,0.00001924,0.00001259,-0.00001430,0.00000673,0.00000327,0.00000436,0.
 00000052,-0.00000048,0.00000442,0.00000655,0.00000100,-0.00000682,0.00
 000410,0.00000505,-0.00001914,-0.00000704,-0.00000014,0.00002060,-0.00
 001085,0.00000221,0.00001019,-0.00000539,0.00000064,0.00001160,-0.0000
 1427,0.00001208,0.00000579\\\@


 THOUGH I SPEAK WITH THE TONGUES OF MEN AND OF ANGELS, 
 AND HAVE NOT LOVE,
 I AM BECOME AS SOUNDING BRASS, A TINKLING CYMBAL.
 AND THOUGH I HAVE THE GIFT OF PROPHECY,
 AND UNDERSTAND ALL MYSTERIES, AND ALL KNOWLEDGE.
 AND THOUGH I HAVE ALL FAITH, SO THAT I COULD REMOVE MOUNTAINS,
 AND HAVE NOT LOVE, I AM NOTHING.
 AND THOUGH I BESTOW ALL MY GOODS TO FEED THE POOR,
 AND THOUGH I GIVE MY BODY TO BE BURNED,
 AND HAVE NOT LOVE IT PROFITETH ME NOTHING.
 LOVE SUFFERETH LONG, AND IS KIND,
 LOVE ENVIETH NOT,
 LOVE VAUNTETH NOT ITSELF, IS NOT PUFFED UP,
 DOTH NOT BEHAVE ITSELF UNSEEMLY, SEEKETH NOT HER OWN,
 IS NOT EASILY PROVOKED, THINKETH NO EVIL,
 REJOICETH NOT IN INIQUITY, BUT REJOICETH IN THE TRUTH,
 BEARETH ALL THINGS, BELIEVETH ALL THINGS,
 HOPETH ALL THINGS, ENDURETH ALL THINGS.
 LOVE NEVER FAILETH, BUT WHETHER THERE BE PROPHECIES, THEY SHALL FAIL, 
 WHETHER THERE BE TONGUES, THEY SHALL CEASE,
 WHETHER THERE BE KNOWLEDGE, IT SHALL VANISH AWAY.
 FOR WE KNOW IN PART, AND WE PROPHESY IN PART.
 BUT WHEN THAT WHICH IS PERFECT IS COME, THEN THAT WHICH IS IN PART 
 SHALL BE DONE AWAY. 
 WHEN I WAS A CHILD, I SPAKE AS A CHILD, I UNDERSTOOD AS A CHILD, 
 I THOUGHT AS A CHILD.
 BUT WHEN I BECAME A MAN, I PUT AWAY CHILDISH THINGS.
 FOR NOW WE SEE THROUGH A GLASS, DARKLY, BUT THEN FACE TO FACE.
 NOW I KNOW IN PART. BUT THEN SHALL I KNOW EVEN AS ALSO I AM KNOWN.
 AND NOW ABIDETH FAITH, HOPE AND LOVE, THESE THREE.
 BUT THE GREATEST OF THESE IS LOVE.

                     I CORINTHIANS 13
 Job cpu time:       4 days  1 hours 54 minutes  8.1 seconds.
 File lengths (MBytes):  RWF=  11492 Int=      0 D2E=      0 Chk=    677 Scr=      1
 Normal termination of Gaussian 09 at Mon Mar 14 04:20:22 2016.
